[Molden Format]
[Title]
 Molden file created by orca_2mkl for BaseName=/kaggle/working/Trp-F-2/Trp-F_InterFrag

[Atoms] AU
F    1   9         -4.7592488121         5.1346466881         0.8488536410 
O    2   8          2.9915593022         1.5267248614        -3.3267343574 
O    3   8          4.2911730974         4.0363926611        -0.1418088285 
N    4   7         -2.1930007222        -4.7386224514        -0.6703765666 
N    5   7          7.7055586220         0.1334675774         1.2151128014 
C    6   6          0.9276382132        -2.3295655608         0.9789234908 
C    7   6          3.4482191814        -1.5286599410         1.9883528306 
C    8   6         -1.2744596506        -0.7689975940         0.6072540445 
C    9   6          5.2967209397        -0.4522587070        -0.0154617392 
C   10   6         -3.2000716838        -2.3457453959        -0.4277376207 
C   11   6          0.2710849934        -4.7173554735         0.1753665852 
C   12   6         -1.8014381289         1.8020466208         1.0497787722 
C   13   6         -5.6082517415        -1.4320174568        -1.0178783053 
C   14   6         -4.1949104481         2.6529090406         0.4462966210 
C   15   6          4.1900500725         1.9509475915        -1.1225483462 
C   16   6         -6.1002343815         1.1111589667        -0.5686318218 
H   17   1          4.4035532208        -3.1520575222         2.8479873592 
H   18   1          3.2205714329        -0.0990953487         3.4690023894 
H   19   1          5.4447394083        -1.8351092692        -1.5547665075 
H   20   1          1.3869720549        -6.4284835905         0.1519018558 
H   21   1         -3.1212984499        -6.2702039089        -1.3280503940 
H   22   1         -0.4010565774         3.0896890009         1.8112684843 
H   23   1         -7.0495817686        -2.6623501124        -1.8025096037 
H   24   1          8.9696058816         0.6749874983        -0.1324962582 
H   25   1          8.3914498401        -1.5135478011         1.9374606161 
H   26   1         -7.9310539724         1.9306216972        -0.9890599818 
H   27   1          2.2052574860         3.1067040950        -3.8569083626 
[GTO]
  1 0
s   6 1.0 
     7001.7130900000         0.9926451524
     1051.3660900000         1.8312282616
      239.2856900000         2.9661117939
       67.3974453000         3.9092612383
       21.5199573000         3.3558966734
        7.4031013000         1.1407074825
s   3 1.0 
       20.8479528000        -0.7545105751
        4.8083083400        -0.3389211134
        1.3440698600         1.0041546559
p   3 1.0 
       20.8479528000         4.5483779701
        4.8083083400         3.5107202883
        1.3440698600         1.4903462703
s   1 1.0 
        0.3581513900         0.3299590716
p   1 1.0 
        0.3581513900         0.3949329681
d   1 1.0 
        0.8000000000         1.9292013661

  2 0
s   6 1.0 
     5484.6717000000         0.8317352088
      825.2349500000         1.5308074829
      188.0469600000         2.4771490916
       52.9645000000         3.2562802462
       16.8975700000         2.7928936336
        5.7996353000         0.9549376963
s   3 1.0 
       15.5396160000        -0.6179336976
        3.5999336000        -0.2757210088
        1.0137618000         0.8142076427
p   3 1.0 
       15.5396160000         3.1169455889
        3.5999336000         2.4014372483
        1.0137618000         1.0543605133
s   1 1.0 
        0.2700058000         0.2669561389
p   1 1.0 
        0.2700058000         0.2774319373
d   1 1.0 
        0.8000000000         1.9292013661

  3 0
s   6 1.0 
     5484.6717000000         0.8317352088
      825.2349500000         1.5308074829
      188.0469600000         2.4771490916
       52.9645000000         3.2562802462
       16.8975700000         2.7928936336
        5.7996353000         0.9549376963
s   3 1.0 
       15.5396160000        -0.6179336976
        3.5999336000        -0.2757210088
        1.0137618000         0.8142076427
p   3 1.0 
       15.5396160000         3.1169455889
        3.5999336000         2.4014372483
        1.0137618000         1.0543605133
s   1 1.0 
        0.2700058000         0.2669561389
p   1 1.0 
        0.2700058000         0.2774319373
d   1 1.0 
        0.8000000000         1.9292013661

  4 0
s   6 1.0 
     4173.5110000000         0.6790079572
      627.4579000000         1.2504643275
      142.9021000000         2.0203691378
       40.2343300000         2.6442129843
       12.8202100000         2.2650039968
        4.3904370000         0.7791872309
s   3 1.0 
       11.6263580000        -0.5158738103
        2.7162800000        -0.2550239186
        0.7722180000         0.6727344163
p   3 1.0 
       11.6263580000         2.0680595460
        2.7162800000         1.6100106206
        0.7722180000         0.7644899877
s   1 1.0 
        0.2120313000         0.2226947990
p   1 1.0 
        0.2120313000         0.2050879094
d   1 1.0 
        0.8000000000         1.9292013661

  5 0
s   6 1.0 
     4173.5110000000         0.6790079572
      627.4579000000         1.2504643275
      142.9021000000         2.0203691378
       40.2343300000         2.6442129843
       12.8202100000         2.2650039968
        4.3904370000         0.7791872309
s   3 1.0 
       11.6263580000        -0.5158738103
        2.7162800000        -0.2550239186
        0.7722180000         0.6727344163
p   3 1.0 
       11.6263580000         2.0680595460
        2.7162800000         1.6100106206
        0.7722180000         0.7644899877
s   1 1.0 
        0.2120313000         0.2226947990
p   1 1.0 
        0.2120313000         0.2050879094
d   1 1.0 
        0.8000000000         1.9292013661

  6 0
s   6 1.0 
     3047.5249000000         0.5363343823
      457.3695100000         0.9894506076
      103.9486900000         1.5972822308
       29.2101550000         2.0791870615
        9.2866630000         1.7741742532
        3.1639270000         0.6125798260
s   3 1.0 
        7.8682724000        -0.3995563516
        1.8812885000        -0.1841552393
        0.5442493000         0.5163903794
p   3 1.0 
        7.8682724000         1.2960827175
        1.8812885000         0.9937536282
        0.5442493000         0.4959527138
s   1 1.0 
        0.1687144000         0.1876178721
p   1 1.0 
        0.1687144000         0.1541275509
d   1 1.0 
        0.8000000000         1.9292013661

  7 0
s   6 1.0 
     3047.5249000000         0.5363343823
      457.3695100000         0.9894506076
      103.9486900000         1.5972822308
       29.2101550000         2.0791870615
        9.2866630000         1.7741742532
        3.1639270000         0.6125798260
s   3 1.0 
        7.8682724000        -0.3995563516
        1.8812885000        -0.1841552393
        0.5442493000         0.5163903794
p   3 1.0 
        7.8682724000         1.2960827175
        1.8812885000         0.9937536282
        0.5442493000         0.4959527138
s   1 1.0 
        0.1687144000         0.1876178721
p   1 1.0 
        0.1687144000         0.1541275509
d   1 1.0 
        0.8000000000         1.9292013661

  8 0
s   6 1.0 
     3047.5249000000         0.5363343823
      457.3695100000         0.9894506076
      103.9486900000         1.5972822308
       29.2101550000         2.0791870615
        9.2866630000         1.7741742532
        3.1639270000         0.6125798260
s   3 1.0 
        7.8682724000        -0.3995563516
        1.8812885000        -0.1841552393
        0.5442493000         0.5163903794
p   3 1.0 
        7.8682724000         1.2960827175
        1.8812885000         0.9937536282
        0.5442493000         0.4959527138
s   1 1.0 
        0.1687144000         0.1876178721
p   1 1.0 
        0.1687144000         0.1541275509
d   1 1.0 
        0.8000000000         1.9292013661

  9 0
s   6 1.0 
     3047.5249000000         0.5363343823
      457.3695100000         0.9894506076
      103.9486900000         1.5972822308
       29.2101550000         2.0791870615
        9.2866630000         1.7741742532
        3.1639270000         0.6125798260
s   3 1.0 
        7.8682724000        -0.3995563516
        1.8812885000        -0.1841552393
        0.5442493000         0.5163903794
p   3 1.0 
        7.8682724000         1.2960827175
        1.8812885000         0.9937536282
        0.5442493000         0.4959527138
s   1 1.0 
        0.1687144000         0.1876178721
p   1 1.0 
        0.1687144000         0.1541275509
d   1 1.0 
        0.8000000000         1.9292013661

 10 0
s   6 1.0 
     3047.5249000000         0.5363343823
      457.3695100000         0.9894506076
      103.9486900000         1.5972822308
       29.2101550000         2.0791870615
        9.2866630000         1.7741742532
        3.1639270000         0.6125798260
s   3 1.0 
        7.8682724000        -0.3995563516
        1.8812885000        -0.1841552393
        0.5442493000         0.5163903794
p   3 1.0 
        7.8682724000         1.2960827175
        1.8812885000         0.9937536282
        0.5442493000         0.4959527138
s   1 1.0 
        0.1687144000         0.1876178721
p   1 1.0 
        0.1687144000         0.1541275509
d   1 1.0 
        0.8000000000         1.9292013661

 11 0
s   6 1.0 
     3047.5249000000         0.5363343823
      457.3695100000         0.9894506076
      103.9486900000         1.5972822308
       29.2101550000         2.0791870615
        9.2866630000         1.7741742532
        3.1639270000         0.6125798260
s   3 1.0 
        7.8682724000        -0.3995563516
        1.8812885000        -0.1841552393
        0.5442493000         0.5163903794
p   3 1.0 
        7.8682724000         1.2960827175
        1.8812885000         0.9937536282
        0.5442493000         0.4959527138
s   1 1.0 
        0.1687144000         0.1876178721
p   1 1.0 
        0.1687144000         0.1541275509
d   1 1.0 
        0.8000000000         1.9292013661

 12 0
s   6 1.0 
     3047.5249000000         0.5363343823
      457.3695100000         0.9894506076
      103.9486900000         1.5972822308
       29.2101550000         2.0791870615
        9.2866630000         1.7741742532
        3.1639270000         0.6125798260
s   3 1.0 
        7.8682724000        -0.3995563516
        1.8812885000        -0.1841552393
        0.5442493000         0.5163903794
p   3 1.0 
        7.8682724000         1.2960827175
        1.8812885000         0.9937536282
        0.5442493000         0.4959527138
s   1 1.0 
        0.1687144000         0.1876178721
p   1 1.0 
        0.1687144000         0.1541275509
d   1 1.0 
        0.8000000000         1.9292013661

 13 0
s   6 1.0 
     3047.5249000000         0.5363343823
      457.3695100000         0.9894506076
      103.9486900000         1.5972822308
       29.2101550000         2.0791870615
        9.2866630000         1.7741742532
        3.1639270000         0.6125798260
s   3 1.0 
        7.8682724000        -0.3995563516
        1.8812885000        -0.1841552393
        0.5442493000         0.5163903794
p   3 1.0 
        7.8682724000         1.2960827175
        1.8812885000         0.9937536282
        0.5442493000         0.4959527138
s   1 1.0 
        0.1687144000         0.1876178721
p   1 1.0 
        0.1687144000         0.1541275509
d   1 1.0 
        0.8000000000         1.9292013661

 14 0
s   6 1.0 
     3047.5249000000         0.5363343823
      457.3695100000         0.9894506076
      103.9486900000         1.5972822308
       29.2101550000         2.0791870615
        9.2866630000         1.7741742532
        3.1639270000         0.6125798260
s   3 1.0 
        7.8682724000        -0.3995563516
        1.8812885000        -0.1841552393
        0.5442493000         0.5163903794
p   3 1.0 
        7.8682724000         1.2960827175
        1.8812885000         0.9937536282
        0.5442493000         0.4959527138
s   1 1.0 
        0.1687144000         0.1876178721
p   1 1.0 
        0.1687144000         0.1541275509
d   1 1.0 
        0.8000000000         1.9292013661

 15 0
s   6 1.0 
     3047.5249000000         0.5363343823
      457.3695100000         0.9894506076
      103.9486900000         1.5972822308
       29.2101550000         2.0791870615
        9.2866630000         1.7741742532
        3.1639270000         0.6125798260
s   3 1.0 
        7.8682724000        -0.3995563516
        1.8812885000        -0.1841552393
        0.5442493000         0.5163903794
p   3 1.0 
        7.8682724000         1.2960827175
        1.8812885000         0.9937536282
        0.5442493000         0.4959527138
s   1 1.0 
        0.1687144000         0.1876178721
p   1 1.0 
        0.1687144000         0.1541275509
d   1 1.0 
        0.8000000000         1.9292013661

 16 0
s   6 1.0 
     3047.5249000000         0.5363343823
      457.3695100000         0.9894506076
      103.9486900000         1.5972822308
       29.2101550000         2.0791870615
        9.2866630000         1.7741742532
        3.1639270000         0.6125798260
s   3 1.0 
        7.8682724000        -0.3995563516
        1.8812885000        -0.1841552393
        0.5442493000         0.5163903794
p   3 1.0 
        7.8682724000         1.2960827175
        1.8812885000         0.9937536282
        0.5442493000         0.4959527138
s   1 1.0 
        0.1687144000         0.1876178721
p   1 1.0 
        0.1687144000         0.1541275509
d   1 1.0 
        0.8000000000         1.9292013661

 17 0
s   3 1.0 
       18.7311370000         0.2149354183
        2.8253937000         0.3645711272
        0.6401217000         0.4150514277
s   1 1.0 
        0.1612778000         0.1813806839
p   1 1.0 
        1.1000000000         1.6057611426

 18 0
s   3 1.0 
       18.7311370000         0.2149354183
        2.8253937000         0.3645711272
        0.6401217000         0.4150514277
s   1 1.0 
        0.1612778000         0.1813806839
p   1 1.0 
        1.1000000000         1.6057611426

 19 0
s   3 1.0 
       18.7311370000         0.2149354183
        2.8253937000         0.3645711272
        0.6401217000         0.4150514277
s   1 1.0 
        0.1612778000         0.1813806839
p   1 1.0 
        1.1000000000         1.6057611426

 20 0
s   3 1.0 
       18.7311370000         0.2149354183
        2.8253937000         0.3645711272
        0.6401217000         0.4150514277
s   1 1.0 
        0.1612778000         0.1813806839
p   1 1.0 
        1.1000000000         1.6057611426

 21 0
s   3 1.0 
       18.7311370000         0.2149354183
        2.8253937000         0.3645711272
        0.6401217000         0.4150514277
s   1 1.0 
        0.1612778000         0.1813806839
p   1 1.0 
        1.1000000000         1.6057611426

 22 0
s   3 1.0 
       18.7311370000         0.2149354183
        2.8253937000         0.3645711272
        0.6401217000         0.4150514277
s   1 1.0 
        0.1612778000         0.1813806839
p   1 1.0 
        1.1000000000         1.6057611426

 23 0
s   3 1.0 
       18.7311370000         0.2149354183
        2.8253937000         0.3645711272
        0.6401217000         0.4150514277
s   1 1.0 
        0.1612778000         0.1813806839
p   1 1.0 
        1.1000000000         1.6057611426

 24 0
s   3 1.0 
       18.7311370000         0.2149354183
        2.8253937000         0.3645711272
        0.6401217000         0.4150514277
s   1 1.0 
        0.1612778000         0.1813806839
p   1 1.0 
        1.1000000000         1.6057611426

 25 0
s   3 1.0 
       18.7311370000         0.2149354183
        2.8253937000         0.3645711272
        0.6401217000         0.4150514277
s   1 1.0 
        0.1612778000         0.1813806839
p   1 1.0 
        1.1000000000         1.6057611426

 26 0
s   3 1.0 
       18.7311370000         0.2149354183
        2.8253937000         0.3645711272
        0.6401217000         0.4150514277
s   1 1.0 
        0.1612778000         0.1813806839
p   1 1.0 
        1.1000000000         1.6057611426

 27 0
s   3 1.0 
       18.7311370000         0.2149354183
        2.8253937000         0.3645711272
        0.6401217000         0.4150514277
s   1 1.0 
        0.1612778000         0.1813806839
p   1 1.0 
        1.1000000000         1.6057611426

[5D]
[7F]
[9G]
[MO]
 Sym=     1a
 Ene= -2.46755835425116E+01
 Spin= Alpha
 Occup= 2.000000
  1       0.995012717843
  2       0.028593415224
  3       0.000317810753
  4      -0.001386710246
  5      -0.000225926760
  6      -0.018322990877
  7      -0.001140578071
  8       0.004841230588
  9       0.000773749255
 10       0.000344690616
 11       0.000135312388
 12      -0.000203853165
 13       0.000750958156
 14       0.000354257143
 15       0.000000328720
 16       0.000006962902
 17      -0.000004387640
 18       0.000001577523
 19       0.000005318121
 20      -0.000032167026
 21       0.000008251048
 22      -0.000011533482
 23      -0.000045692426
 24      -0.000006294574
 25       0.000002241575
 26      -0.000008610976
 27       0.000000878093
 28      -0.000001457633
 29       0.000001747852
 30       0.000034900556
 31      -0.000013488225
 32       0.000003930157
 33       0.000015635005
 34      -0.000098327557
 35       0.000081941834
 36       0.000002229203
 37      -0.000036992272
 38       0.000001312440
 39       0.000005595846
 40       0.000004167864
 41      -0.000007737031
 42      -0.000008637392
 43      -0.000028759601
 44      -0.000273159795
 45      -0.000015098755
 46      -0.000005761688
 47      -0.000005407955
 48       0.002625143272
 49      -0.000012555111
 50       0.000863523932
 51       0.000201407501
 52      -0.000022401263
 53       0.000003741920
 54       0.000004845554
 55      -0.000011727674
 56      -0.000023142032
 57       0.000001277488
 58       0.000007823717
 59       0.000003456972
 60      -0.000001716959
 61      -0.000002143089
 62      -0.000107187322
 63       0.000039191027
 64      -0.000018935654
 65       0.000047721992
 66      -0.000001117741
 67      -0.000004468164
 68       0.000003579070
 69      -0.000005353125
 70       0.000003283366
 71      -0.000047900944
 72      -0.000350585107
 73       0.000020238134
 74      -0.000026105753
 75       0.000006803566
 76       0.001997411714
 77      -0.001718351844
 78       0.001086480112
 79      -0.000326168944
 80      -0.000075469036
 81       0.000027135924
 82       0.000003977682
 83      -0.000001076560
 84      -0.000093280979
 85      -0.000008722653
 86      -0.000086768038
 87       0.000010338899
 88       0.000012425557
 89       0.000006778533
 90       0.000668384395
 91      -0.000014907580
 92      -0.000467870801
 93      -0.000222823696
 94      -0.000001818810
 95      -0.000000595988
 96       0.000014037147
 97      -0.000025874194
 98       0.000026120363
 99       0.000046563978
100       0.000191374240
101       0.000173462387
102      -0.000139210030
103       0.000024382278
104      -0.008866365976
105       0.000142434717
106      -0.002381942444
107      -0.000535247860
108       0.000054744700
109      -0.000005540649
110       0.000013066971
111      -0.000003623170
112       0.000106823530
113       0.000001236799
114       0.000014597921
115      -0.000011488915
116      -0.000013286494
117      -0.000008931810
118      -0.000004721880
119       0.000140383465
120       0.000310967074
121       0.000023934032
122       0.000000023724
123       0.000006948278
124       0.000003790624
125       0.000004850815
126      -0.000005411678
127      -0.000035520019
128      -0.000393336661
129       0.000007932893
130      -0.000124430747
131      -0.000027088779
132       0.002446639479
133      -0.001882756264
134       0.003515630726
135       0.000221983803
136      -0.000007050366
137       0.000040717381
138      -0.000006774018
139       0.000080786572
140       0.000021238936
141      -0.000000979469
142      -0.000072769878
143       0.000043292428
144      -0.000009661508
145       0.000011065554
146      -0.000387027618
147       0.000771434746
148      -0.000551559568
149       0.000139885443
150       0.000013790995
151       0.000002684471
152       0.000004786800
153       0.000005663054
154       0.000030002854
155      -0.000052190295
156      -0.000427827681
157      -0.000036756524
158       0.000166331154
159       0.000022208629
160       0.008105985607
161      -0.002732908844
162      -0.006911930165
163      -0.002551062899
164      -0.000046286987
165       0.000126169654
166       0.000086786438
167       0.000080119909
168       0.000205847309
169       0.000039830649
170       0.000158356685
171      -0.000043986292
172      -0.000173455723
173      -0.000056638475
174      -0.008301246920
175      -0.001772696686
176      -0.003058847736
177      -0.001342748107
178       0.000029984659
179      -0.000028435659
180      -0.000031267608
181       0.000009431564
182      -0.000034777300
183       0.000041265409
184       0.001641799759
185      -0.000192218848
186       0.000843845257
187       0.000138237220
188      -0.002425487775
189      -0.002671553531
190       0.013786136322
191       0.002387199395
192      -0.000471068064
193       0.000008755470
194       0.000255415226
195      -0.000631323784
196      -0.000310339879
197       0.000000230210
198       0.000003392253
199       0.000004949772
200      -0.000009558435
201      -0.000005533431
202      -0.000063357149
203      -0.000165704216
204       0.000095318658
205      -0.000052550684
206       0.000005748022
207      -0.000002937772
208       0.000009362439
209      -0.000002871112
210      -0.000001574455
211      -0.000055278202
212      -0.000446143754
213      -0.000033275626
214       0.000143533109
215       0.000023365113
216       0.008620641730
217       0.006070399079
218      -0.005089660157
219       0.000830809015
220      -0.000087380517
221       0.000105582063
222      -0.000054542890
223       0.000226125328
224      -0.000128906017
225      -0.000051591127
226      -0.000102156772
227      -0.000018109806
228       0.000001334938
229       0.000008456069
230       0.000031068967
231       0.000074416501
232       0.000009586569
233       0.000008964678
234       0.000001800782
235       0.000026827674
236       0.000112120426
237      -0.000013648319
238      -0.000003374105
239       0.000008610273
240      -0.000063979369
241      -0.000317305185
242      -0.000017061172
243       0.000002056853
244      -0.000005623691
245      -0.000026931070
246       0.000132473723
247       0.000002055297
248      -0.000016493977
249      -0.000003033081
250       0.000325995453
251       0.002197140805
252      -0.000002675587
253       0.000086248341
254       0.000022851999
255       0.000001386159
256      -0.000570906488
257       0.000009295403
258       0.000064333652
259       0.000018971659
260       0.000007011239
261       0.000001095412
262       0.000000790990
263       0.000001320411
264       0.000001895447
265       0.000003393215
266      -0.000013433838
267      -0.000000666652
268      -0.000001486029
269      -0.000003689004
270       0.000355800445
271       0.002291860201
272      -0.000055169319
273       0.000052190289
274      -0.000006630988
275       0.000011740341
276      -0.000063207558
277      -0.000007015964
278       0.000006177151
279      -0.000004446876
 Sym=     1a
 Ene= -1.91857444942238E+01
 Spin= Alpha
 Occup= 2.000000
  1      -0.000000160247
  2      -0.000007058906
  3      -0.000005407522
  4      -0.000005175715
  5       0.000007264963
  6       0.000026588114
  7       0.000023632306
  8       0.000023880067
  9      -0.000035988871
 10       0.000005997167
 11       0.000002865456
 12       0.000006690313
 13       0.000009885786
 14      -0.000006034745
 15      -0.995106937413
 16      -0.030370369562
 17      -0.000103780761
 18      -0.001761811202
 19      -0.001018452611
 20       0.022006867170
 21       0.003135967937
 22       0.001732491631
 23       0.006163251849
 24       0.000717123791
 25       0.000312064767
 26       0.000604731061
 27       0.000377257002
 28       0.000587396080
 29       0.000533418941
 30       0.000555950348
 31       0.000084338620
 32      -0.000156659457
 33       0.000053796782
 34      -0.002476257902
 35      -0.001382768560
 36       0.001375536043
 37      -0.001587136986
 38       0.000290755233
 39       0.000056234419
 40       0.000299005842
 41       0.000264335560
 42       0.000344433736
 43       0.000003949541
 44       0.000037443615
 45      -0.000013810825
 46       0.000008904228
 47       0.000006959040
 48      -0.000321585021
 49       0.000204970109
 50      -0.000207037727
 51      -0.000027879489
 52       0.000003771521
 53      -0.000002391580
 54      -0.000001089243
 55       0.000006774424
 56       0.000006897392
 57       0.000019271271
 58       0.000319067100
 59      -0.000142509342
 60       0.000144150373
 61      -0.000087948799
 62       0.000653863774
 63      -0.000150142689
 64      -0.001131333346
 65       0.000922063319
 66      -0.000082828551
 67      -0.000098522660
 68       0.000015315925
 69       0.000023580678
 70       0.000022255598
 71      -0.000036057362
 72      -0.000403990924
 73      -0.000099803154
 74      -0.000119152188
 75      -0.000020874525
 76       0.001617037195
 77       0.000363073115
 78       0.001692119902
 79       0.000395941394
 80      -0.000004355270
 81       0.000015733109
 82      -0.000078118410
 83       0.000020590347
 84      -0.000043838508
 85      -0.000046140470
 86      -0.000381694403
 87       0.000142005861
 88       0.000048693341
 89      -0.000011934995
 90       0.002066618796
 91       0.001481409677
 92       0.001046927234
 93      -0.000196054091
 94      -0.000022536696
 95      -0.000033557281
 96      -0.000065081906
 97      -0.000004468556
 98       0.000127121402
 99       0.000003031013
100      -0.000019663254
101       0.000021424924
102       0.000001638405
103       0.000012988478
104      -0.000482639182
105      -0.001673154230
106      -0.000385179046
107      -0.000598186529
108       0.000021970139
109      -0.000043367863
110      -0.000005022254
111      -0.000006830172
112       0.000014717357
113       0.000074466457
114       0.001019633246
115      -0.000152289297
116       0.000254604010
117       0.000072417836
118      -0.003219972355
119       0.000282946681
120      -0.001919733493
121      -0.003949185162
122       0.000086977998
123       0.000159670942
124      -0.000184186683
125       0.000165002900
126      -0.000093956301
127       0.000007232683
128       0.000064562227
129      -0.000008817326
130      -0.000006652395
131      -0.000010968918
132      -0.001018808053
133      -0.000033465865
134      -0.000906667221
135      -0.000218967680
136      -0.000001321318
137      -0.000004672635
138      -0.000004670635
139      -0.000005097095
140      -0.000007416703
141      -0.000006704957
142      -0.000028315633
143       0.000008674454
144       0.000035355568
145      -0.000000747064
146       0.000842802496
147       0.000223126752
148       0.000396575386
149       0.000267307961
150      -0.000013908920
151       0.000011077434
152       0.000019559694
153      -0.000018511144
154       0.000004026943
155      -0.000020379216
156      -0.000241329552
157      -0.000117783921
158      -0.000043447842
159       0.000055469919
160       0.000526412182
161       0.001442789182
162       0.000061650714
163       0.000066869387
164      -0.000018594984
165      -0.000016338007
166       0.000015051679
167      -0.000008849964
168       0.000005404720
169      -0.000004204087
170      -0.000022456688
171       0.000013732899
172      -0.000010239796
173      -0.000003145546
174       0.000604778698
175       0.000223304842
176       0.000356356086
177       0.000191149330
178      -0.000003895550
179       0.000002807279
180       0.000006266238
181       0.000004557200
182       0.000001910993
183      -0.000002372612
184       0.000000852462
185       0.000030770439
186      -0.000004119460
187      -0.000015300203
188       0.000886181480
189       0.000138351113
190      -0.000301050581
191       0.000212393675
192       0.000002029753
193       0.000018618937
194      -0.000006294313
195      -0.000003909911
196      -0.000010056281
197      -0.000033714847
198      -0.000009211094
199       0.000215650219
200       0.000021441205
201       0.000692693973
202      -0.007914706843
203       0.005855684008
204       0.002138823823
205       0.010355562684
206       0.000113164732
207      -0.000142664139
208       0.000231804843
209       0.000129664571
210       0.000304453368
211       0.000003571119
212       0.000022449818
213      -0.000003136296
214       0.000002761816
215       0.000004694903
216      -0.000530226573
217      -0.000170181684
218       0.000190454329
219      -0.000096938605
220      -0.000002361287
221      -0.000005929682
222      -0.000009429843
223       0.000006648580
224       0.000003195143
225      -0.000085400822
226       0.000037791326
227      -0.000058494041
228      -0.000023102289
229      -0.000021277535
230      -0.000023394082
231      -0.000851729136
232       0.000003551974
233      -0.000019734809
234       0.000086110745
235      -0.000050577703
236      -0.001525945777
237      -0.000058251161
238       0.000042096053
239      -0.000043194307
240      -0.000027379989
241       0.000043473202
242      -0.000005109242
243      -0.000004820985
244      -0.000012558906
245       0.000006775240
246      -0.000011280264
247      -0.000004337395
248       0.000003590850
249       0.000004530800
250      -0.000187848371
251      -0.000545384360
252      -0.000026856983
253       0.000039893135
254       0.000019328252
255       0.000018225218
256       0.000111534473
257      -0.000000346058
258      -0.000003265298
259      -0.000003297397
260       0.000175557483
261       0.000323192692
262      -0.000042750084
263       0.000062966974
264       0.000004488102
265      -0.000180122735
266      -0.000684435152
267       0.000012577624