
                                 *****************
                                 * O   R   C   A *
                                 *****************

                                            #,                                       
                                            ###                                      
                                            ####                                     
                                            #####                                    
                                            ######                                   
                                           ########,                                 
                                     ,,################,,,,,                         
                               ,,#################################,,                 
                          ,,##########################################,,             
                       ,#########################################, ''#####,          
                    ,#############################################,,   '####,        
                  ,##################################################,,,,####,       
                ,###########''''           ''''###############################       
              ,#####''   ,,,,##########,,,,          '''####'''          '####       
            ,##' ,,,,###########################,,,                        '##       
           ' ,,###''''                  '''############,,,                           
         ,,##''                                '''############,,,,        ,,,,,,###''
      ,#''                                            '''#######################'''  
     '                                                          ''''####''''         
             ,#######,   #######,   ,#######,      ##                                
            ,#'     '#,  ##    ##  ,#'     '#,    #''#        ,####,    ,#,          
            ##       ##  ##   ,#'  ##            #'  '#       #'       ,# #          
            ##       ##  #######   ##           ,######,      #####,      #          
            '#,     ,#'  ##    ##  '#,     ,#' ,#      #,     #,   #      #          
             '#######'   ##     ##  '#######'  #'      '#     '####' #    #          



                #########################################################
                #                        -***-                          #
                #          Department of theory and spectroscopy        #
                #                                                       #
                #                      Frank Neese                      #
                #                                                       #
                #     Directorship, Architecture, Infrastructure        #
                #                    SHARK, DRIVERS                     #
                #        Core code/Algorithms in most modules           #
                #                                                       #
                #        Max Planck Institute fuer Kohlenforschung      #
                #                Kaiser Wilhelm Platz 1                 #
                #                 D-45470 Muelheim/Ruhr                 #
                #                      Germany                          #
                #                                                       #
                #                  All rights reserved                  #
                #                        -***-                          #
                #########################################################


                         Program Version 6.1.1  -  RELEASE   -
                                (GIT: $487d211c$)
                          ($2025-11-21 10:33:24 +0100$)
                                                                         
                                  - NO-DMRG VERSION -                    
                                                                         


 With contributions from (in alphabetic order):
[Max-Planck-Institut fuer Kohlenforschung]                               
  Daniel Aravena         : Magnetic Suceptibility                        
  Michael Atanasov       : Ab Initio Ligand Field Theory (pilot matlab implementation)
  Alexander A. Auer      : GIAO ZORA, VPT2 properties, NMR spectrum      
  Ute Becker             : All parallelization in ORCA, NUMFREQ, NUMCALC 
  Giovanni Bistoni       : ED, misc. LED, open-shell LED, HFLD           
  Dmytro Bykov           : pre 5.0 version of the SCF Hessian            
  Marcos Casanova-Páez   : Triplet and SCS-CIS(D). UHF-(DLPNO)-IP/EA/STEOM-CCSD. UHF-CVS-IP/STEOM-CCSD   
  Vijay G. Chilkuri      : MRCI spin determinant printing, contributions to CSF-ICE 
  Pauline Colinet        : FMM embedding                                 
  Dipayan Datta          : RHF DLPNO-CCSD density                        
  Achintya Kumar Dutta   : EOM-CC, STEOM-CC                              
  Nicolas Foglia         : Exact transition moments, OPA infrastructure, MCD improvements    
  Dmitry Ganyushin       : Spin-Orbit,Spin-Spin,Magnetic field MRCI      
  Miquel Garcia-Rates    : C-PCM and meta-GGA Hessian, CCSD/C-PCM, Gaussian charge scheme 
  Tiago L. C. Gouveia    : GS-ROHF, GS-ROCIS                             
  Yang Guo               : DLPNO-NEVPT2, F12-NEVPT2, CIM, IAO-localization        
  Andreas Hansen         : Spin unrestricted coupled pair/coupled cluster methods 
  Ingolf Harden          : AUTO-CI MPn and infrastructure                
  Benjamin Helmich-Paris : MC-RPA, TRAH-(SCF,CASSCF), AVAS, COSX integrals, SCF dyn. polar., MC-PDFT, srDFT 
  Lee Huntington         : MR-EOM, pCC                                   
  Robert Izsak           : Overlap fitted RIJCOSX, COSX-SCS-MP3, EOM     
  Riya Kayal             : Wick's Theorem for AUTO-CI, AUTO-CI UHF-CCSDT 
  Emily Kempfer          : AUTO-CI RHF CISDT and CCSDT, approximate NEVPT4
  Christian Kollmar      : KDIIS, OOCD, Brueckner-CCSD(T), CCSD density, CASPT2, CASPT2-K, improved NEVPT2 
  Axel Koslowski         : Symmetry handling                             
  Simone Kossmann        : meta-GGA functionals, TD-DFT gradient, OOMP2, (MP2 Hessian; deprecated post 5.0) 
  Lucas Lang             : DCDCAS, Hyperfine gauge corrections, ICE-SOC+SSC
  Marvin Lechner         : AUTO-CI (C++ implementation), FIC-MRCC        
  Spencer Leger          : CASSCF response                               
  Dagmar Lenk            : GEPOL surface, SMD, ORCA-2-JSON               
  Dimitrios Liakos       : Extrapolation schemes; Compound Job, Property file
  Dimitrios Manganas     : Further ROCIS development; embedding schemes. LFT, Crystal Embedding 
  Dimitrios Pantazis     : SARC Basis sets                               
  Anastasios Papadopoulos: AUTO-CI, single reference methods and gradients 
  Taras Petrenko         : pre 6.0 DFT Hessian and TD-DFT gradient,  ECA, NRVS 
  Petra Pikulova         : Analytic Raman intensities                    
  Peter Pinski           : DLPNO-MP2, DLPNO-MP2 Gradient                 
  Shashank Vittal Rao    : ES-AILFT, MagRelax                            
  Christoph Reimann      : Effective Core Potentials                     
  Marius Retegan         : Local ZFS, SOC                                
  Christoph Riplinger    : Optimizer, TS searches, QM/MM, DLPNO-CCSD(T), (RO)-DLPNO pert. Triples 
  Michael Roemelt        : Original ROCIS implementation, recursive CI coupling coefficients
  Masaaki Saitow         : Open-shell DLPNO-CCSD energy and density      
  Barbara Sandhoefer     : DKH picture change effects                    
  Yorick L. A. Schmerwitz: GMF and freeze-and-release deltaSCF, NEB S-IDPP initial path                    
  Kantharuban Sivalingam : CASSCF convergence/infrastructure, NEVPT2, NEVPT3, NEVPT4(SD), FIC-MRCI and CEPA variants
  Bernardo de Souza      : ESD, SOC TD-DFT                               
  Georgi L. Stoychev     : AutoAux, RI-MP2 NMR, DLPNO-MP2 response, X2C  
  Van Anh Tran           : RI-MP2 g-tensors                              
  Willem Van den Heuvel  : Paramagnetic NMR                              
  Zikuan Wang            : NOTCH, Electric field optimization            
  Frank Wennmohs         : Technical directorship and infrastructure     
  Hang Xu                : AUTO-CI-Response properties                   
                                                                         
[FACCTs GmbH]                                                            
  Markus Bursch, Nicolas Foglia, Miquel Garcia-Rates, Ingolf Harden, Hagen Neugebauer, Anastasios Papadopoulos, 
  Christoph Riplinger, Bernardo de Souza, Georgi L. Stoychev                                                    
                                                                 
  APM, various basis sets, CI-OPT, improved COSX, DLPNO-Multilevel,           
  DOCKER, DRACO, updates on ESD, Fragmentator, GOAT, IRC, LR-CPCM, L-BFGS, MBIS, meta-GGA TD-DFT gradient, ML-optimized integration grids, 
  MM, NACMEs, nearIR, NEB, NEB-TS, NL-DFT gradient (VV10), 2- and 3-layer-ONIOM, interface openCOSMO-RS, QMMM,   
  Crystal-QMMM, RESP, rigid body optimization, SF, symmetry and pop. for TD-DFT, various functionals, SOLVATOR                                   
                                                                         
[Other institutions]                                                     
  V. Asgeirsson          : NEB                                           
  Christoph Bannwarth    : sTDA-DFT, sTD-DFT, PBEh-3c, B97-3c, D3        
  Giovanni Bistoni       : ETS/NOCV, ADLD/ADEX, COVALED                  
  Martin Brehm           : Molecular dynamics                            
  Ronald Cardenas        : ETS/NOCV                                      
  Martina Colucci        : COVALED                                       
  Sebastian Ehlert       : rSCAN, r2SCAN, r2SCAN-3c, D4, dhf basis sets  
  Marvin Friede          : D4 for Fr, Ra, Ac-Lr                          
  Lars Goerigk           : TD-DFT with DH, B97 family of functionals     
  Stefan Grimme          : VdW corrections, initial TS optimization, DFT functionals, gCP, sTDA/sTD-DF 
  Waldemar Hujo          : DFT-NL                                        
  H. Jonsson             : NEB                                           
  Holger Kruse           : gCP                                           
  Marcel Mueller         : wB97X-3c, vDZP basis set                      
  Hagen Neugebauer       : wr2SCAN, Native XTB                           
  Gianluca Regni         : ADLD/ADEX                                     
  Tobias Risthaus        : pre 6.0 range-separated hybrid DFT and stability analysis
  Lukas Wittmann         : regularized MP2, r2SCAN double-hybrids, wr2SCAN        
                                                                         
We gratefully acknowledge several colleagues who have allowed us to      
interface, adapt or use parts of their codes:                            
  Ed Valeev, F. Pavosevic, A. Kumar             : LibInt (2-el integral package), F12 methods 
  Garnet Chan, S. Sharma, J. Yang, R. Olivares  : DMRG                   
  Ulf Ekstrom                                   : XCFun DFT Library      
  Mihaly Kallay                                 : mrcc  (arbitrary order and MRCC methods)
  Frank Weinhold                                : gennbo (NPA and NBO analysis)           
  Simon Mueller                                 : openCOSMO-RS                            
  Christopher J. Cramer and Donald G. Truhlar   : smd solvation model                     
  S Lehtola, MJT Oliveira, MAL Marques          : LibXC Library                           
  Liviu Ungur et al                             : ANISO software                          


 Your calculation uses the libint2 library for the computation of 2-el integrals
 For citations please refer to: http://libint.valeyev.net

 Your ORCA version has been built with support for libXC version: 7.0.0
 For citations please refer to: https://libxc.gitlab.io

 This ORCA versions uses:
   CBLAS   interface :  Fast vector & matrix operations
   LAPACKE interface :  Fast linear algebra routines
   SCALAPACK package :  Parallel linear algebra routines
   Shared memory     :  Shared parallel matrices
   BLAS/LAPACK       :  OpenBLAS 0.3.29  USE64BITINT DYNAMIC_ARCH NO_AFFINITY SkylakeX SINGLE_THREADED
        Core in use  :  SkylakeX
   Copyright (c) 2011-2014, The OpenBLAS Project


  ***********************************
  * Starting time: Sun Mar 22 18:59:47 2026
  * Host name:     d9b0b1762210
  * Process ID:    54
  * Working dir.:  /kaggle/working
  ***********************************

NOTE: MaxCore=3000 MB was set to SCF,MP2,MDCI,CIPSI,MRCI,RASCI and CIS
      => If you want to overwrite this, your respective input block should be placed after the MaxCore statement
Your calculation utilizes the atom-pairwise dispersion correction
with the Becke-Johnson damping scheme (D3BJ)


Your calculation utilizes the SMD solvation module
Please cite in your paper:
Marenich, A. V.; Cramer, C. J.; Truhlar, D. G. J. Phys. Chem. B 2009, 113, 6378 

Warning: RI is on but no J-basis has been assigned. Assigning Def2/J (nothing to worry about!)
================================================================================

----- Orbital basis set information -----
Your calculation utilizes the basis: 6-31G(d,p)
   H-He, Li-Ne : W. J. Hehre, R. Ditchfield and J.A. Pople, J. Chem. Phys. 56, 2257 (1972).
                 Note: He and Ne are unpublished basis sets taken from the Gaussian program.
                 Note: Li and B from J. D. Dill and J. A. Pople, J. Chem. Phys. 62, 2921 (1975).
   Na - Ar     : M. M. Francl, W. J. Pietro, W. J. Hehre, J. S. Binkley, M. S. Gordon, 
                 D. J. DeFrees and J. A. Pople, J. Chem. Phys. 77, 3654 (1982).
   K - Zn      : V. A. Rassolov, J. A. Pople, M. A. Ratner, and T. L. Windus, J. Chem. Phys. 109, 1223 (1998).

----- AuxJ basis set information -----
Your calculation utilizes the auxiliary basis: def2/J
   H-Rn: F. Weigend, Phys. Chem. Chem. Phys. 8, 1057 (2006).
   Fr-Lr: K. Eichkorn, F. Weigend, O. Treutler, R. Ahlrichs; Theor. Chem. Acc. 97, 119 (1997).

================================================================================
                                        WARNINGS
                       Please study these warnings very carefully!
================================================================================


WARNING: Geometry Optimization
  ===> : Switching off AutoStart
         For restart on a previous wavefunction, please use MOREAD

================================================================================
                                       INPUT FILE
================================================================================
NAME = /kaggle/working/Leu-1/Leu_InterFrag.inp
|  1> 
|  2> !RKS B3LYP 6-31G(d,p) TightSCF Opt D3BJ
|  3>  
|  4> %pal nprocs 2 end
|  5> %maxcore 3000
|  6> 
|  7> %cpcm
|  8>   smd true
|  9>   SMDsolvent "WATER"
| 10>   end
| 11> 
| 12> %scf
| 13>   MaxIter 1000
| 14>   SOSCF Start 0.00033
| 15>   end
| 16> end
| 17> 
| 18> %output
| 19>   PrintLevel Normal
| 20>   Print[ P_OrbEn ] 2        # print ALL orbital energies (not just up to LUMO+9) :contentReference[oaicite:10]{index=10}
| 21>   XYZFile true              # writes basename.xyz (handy for reuse) :contentReference[oaicite:11]{index=11}
| 22>   end
| 23> 
| 24> *xyz 0 1
| 25> O        1.103300000     -1.286000000      1.267300000
| 26> O        1.553700000     -1.050900000     -0.942600000
| 27> N        1.731300000      1.754500000      0.012000000
| 28> C       -1.802100000      0.190500000     -0.408700000
| 29> C       -0.564300000      1.079300000     -0.649400000
| 30> C        0.624900000      0.840800000      0.294800000
| 31> C       -2.342300000      0.318300000      1.016000000
| 32> C       -1.450900000     -1.271900000     -0.698400000
| 33> C        1.146400000     -0.574700000      0.109000000
| 34> H       -2.582400000      0.508400000     -1.111400000
| 35> H       -0.244500000      0.957300000     -1.693700000
| 36> H       -0.879800000      2.127300000     -0.553100000
| 37> H        0.326700000      0.988000000      1.337500000
| 38> H       -1.648800000     -0.080300000      1.762900000
| 39> H       -2.544700000      1.366100000      1.261000000
| 40> H       -3.282800000     -0.234700000      1.115500000
| 41> H       -0.859000000     -1.387100000     -1.610900000
| 42> H       -0.991400000     -1.796300000      0.139800000
| 43> H       -2.386600000     -1.816700000     -0.882300000
| 44> H        1.415400000      2.715900000      0.137200000
| 45> H        1.998600000      1.678500000     -0.969400000
| 46> H        1.434700000     -2.201300000      1.146000000
| 47> *
| 48> 
| 49>                          ****END OF INPUT****
================================================================================

                       *****************************
                       * Geometry Optimization Run *
                       *****************************

Geometry optimization settings:
Update method            Update   .... BFGS
Choice of coordinates    CoordSys .... (2022) Redundant Internals
Initial Hessian          InHess   .... Almloef's Model
Max. no of cycles        MaxIter  .... 66

Convergence Tolerances:
Energy Change            TolE     ....  5.0000e-06 Eh
Max. Gradient            TolMAXG  ....  3.0000e-04 Eh/bohr
RMS Gradient             TolRMSG  ....  1.0000e-04 Eh/bohr
Max. Displacement        TolMAXD  ....  4.0000e-03 bohr
RMS Displacement         TolRMSD  ....  2.0000e-03 bohr
Strict Convergence                .... False

------------------------------------------------------------------------------
                        ORCA OPTIMIZATION COORDINATE SETUP
------------------------------------------------------------------------------

The optimization will be done in redundant internal coordinates (2022)
Making redundant internal coordinates   ...  (2022 redundants) done
Evaluating the initial hessian          ...  (Almloef) done
Evaluating the coordinates              ...  done
Calculating the B-matrix                .... done
Calculating the G-matrix                .... done
The number of degrees of freedom        ....   94

    -----------------------------------------------------------------
                    Redundant Internal Coordinates


    -----------------------------------------------------------------
         Definition                    Initial Value    Approx d2E/dq
    -----------------------------------------------------------------
      1. B(C   4,C   3)                  1.5427         0.356492   
      2. B(C   5,C   4)                  1.5371         0.363993   
      3. B(C   5,N   2)                  1.4625         0.428732   
      4. B(C   6,C   3)                  1.5290         0.374915   
      5. B(C   7,C   3)                  1.5316         0.371349   
      6. B(C   8,O   1)                  1.2241         1.029182   
      7. B(C   8,O   0)                  1.3600         0.624911   
      8. B(C   8,C   5)                  1.5199         0.387683   
      9. B(H   9,C   3)                  1.0971         0.350778   
     10. B(H  10,C   4)                  1.0990         0.348437   
     11. B(H  11,C   4)                  1.0987         0.348787   
     12. B(H  12,C   5)                  1.0944         0.354265   
     13. B(H  13,C   6)                  1.0944         0.354343   
     14. B(H  14,C   6)                  1.0949         0.353635   
     15. B(H  15,C   6)                  1.0956         0.352821   
     16. B(H  16,C   7)                  1.0937         0.355183   
     17. B(H  17,C   7)                  1.0903         0.359727   
     18. B(H  18,C   7)                  1.0983         0.349346   
     19. B(H  19,N   2)                  1.0197         0.417583   
     20. B(H  20,N   2)                  1.0200         0.417122   
     21. B(H  21,O   0)                  0.9810         0.481394   
     22. A(C   8,O   0,H  21)          111.8386         0.365749   
     23. A(C   5,N   2,H  20)          109.7400         0.335016   
     24. A(H  19,N   2,H  20)          105.6391         0.299781   
     25. A(C   5,N   2,H  19)          109.3251         0.335078   
     26. A(C   4,C   3,C   6)          112.3762         0.360680   
     27. A(C   7,C   3,H   9)          108.5778         0.322610   
     28. A(C   6,C   3,H   9)          108.7413         0.323116   
     29. A(C   6,C   3,C   7)          109.6976         0.363203   
     30. A(C   4,C   3,H   9)          107.6843         0.320461   
     31. A(C   4,C   3,C   7)          109.6694         0.360093   
     32. A(C   5,C   4,H  10)          109.9599         0.321202   
     33. A(C   3,C   4,H  10)          108.5290         0.320110   
     34. A(C   3,C   4,C   5)          115.8182         0.358869   
     35. A(H  10,C   4,H  11)          105.8278         0.287899   
     36. A(C   5,C   4,H  11)          108.4414         0.321255   
     37. A(C   3,C   4,H  11)          107.7860         0.320163   
     38. A(N   2,C   5,C   8)          107.3751         0.372074   
     39. A(C   8,C   5,H  12)          109.5852         0.325426   
     40. A(C   4,C   5,H  12)          110.7058         0.322076   
     41. A(N   2,C   5,H  12)          107.8375         0.328883   
     42. A(C   4,C   5,C   8)          109.5648         0.364041   
     43. A(N   2,C   5,C   4)          111.6892         0.368063   
     44. A(H  13,C   6,H  15)          107.3477         0.289177   
     45. A(C   3,C   6,H  15)          110.2263         0.323424   
     46. A(H  13,C   6,H  14)          108.2384         0.289281   
     47. A(H  14,C   6,H  15)          107.6996         0.289086   
     48. A(C   3,C   6,H  14)          110.7189         0.323546   
     49. A(C   3,C   6,H  13)          112.4324         0.323652   
     50. A(C   3,C   7,H  18)          108.0563         0.322393   
     51. A(H  16,C   7,H  17)          111.2637         0.290165   
     52. A(C   3,C   7,H  17)          114.2338         0.323946   
     53. A(C   3,C   7,H  16)          112.4860         0.323271   
     54. A(H  17,C   7,H  18)          104.4308         0.289412   
     55. A(H  16,C   7,H  18)          105.6120         0.288836   
     56. A(O   0,C   8,O   1)          122.5988         0.470345   
     57. A(O   1,C   8,C   5)          125.5533         0.434126   
     58. A(O   0,C   8,C   5)          111.8459         0.397273   
     59. D(H  10,C   4,C   3,C   7)     59.0316         0.010210   
     60. D(C   5,C   4,C   3,C   7)    -65.1697         0.010210   
     61. D(H  10,C   4,C   3,H   9)    -58.9433         0.010210   
     62. D(C   5,C   4,C   3,H   9)    176.8554         0.010210   
     63. D(H  10,C   4,C   3,C   6)   -178.6758         0.010210   
     64. D(C   5,C   4,C   3,C   6)     57.1229         0.010210   
     65. D(C   8,C   5,C   4,C   3)     62.7768         0.010613   
     66. D(C   4,C   5,N   2,H  19)     60.4189         0.015671   
     67. D(N   2,C   5,C   4,H  11)    -57.1121         0.010613   
     68. D(H  12,C   5,N   2,H  19)    -61.4319         0.015671   
     69. D(N   2,C   5,C   4,C   3)   -178.3796         0.010613   
     70. D(N   2,C   5,C   4,H  10)     58.1646         0.010613   
     71. D(C   8,C   5,N   2,H  20)     65.1296         0.015671   
     72. D(C   4,C   5,N   2,H  20)    -55.0074         0.015671   
     73. D(C   8,C   5,C   4,H  11)   -175.9557         0.010613   
     74. D(C   8,C   5,C   4,H  10)    -60.6790         0.010613   
     75. D(C   8,C   5,N   2,H  19)   -179.4442         0.015671   
     76. D(H  14,C   6,C   3,C   7)    176.7340         0.011219   
     77. D(H  14,C   6,C   3,C   4)     54.4574         0.011219   
     78. D(H  13,C   6,C   3,H   9)    174.1328         0.011219   
     79. D(H  13,C   6,C   3,C   7)     55.5254         0.011219   
     80. D(H  14,C   6,C   3,H   9)    -64.6585         0.011219   
     81. D(H  13,C   6,C   3,C   4)    -66.7513         0.011219   
     82. D(H  17,C   7,C   3,H   9)   -157.8786         0.011019   
     83. D(H  17,C   7,C   3,C   6)    -39.1702         0.011019   
     84. D(H  17,C   7,C   3,C   4)     84.7039         0.011019   
     85. D(H  16,C   7,C   3,H   9)     74.0420         0.011019   
     86. D(H  16,C   7,C   3,C   6)   -167.2495         0.011019   
     87. D(H  16,C   7,C   3,C   4)    -43.3754         0.011019   
     88. D(C   5,C   8,O   0,H  21)    179.6457         0.028684   
     89. D(O   1,C   8,O   0,H  21)      0.1220         0.028684   
     90. D(O   1,C   8,C   5,C   4)     58.1410         0.011189   
     91. D(O   1,C   8,C   5,N   2)    -63.3371         0.011189   
     92. D(O   0,C   8,C   5,H  12)      0.2839         0.011189   
     93. D(O   0,C   8,C   5,C   4)   -121.3657         0.011189   
     94. D(O   0,C   8,C   5,N   2)    117.1562         0.011189   
    -----------------------------------------------------------------

Number of atoms                         .... 22
Number of degrees of freedom            .... 94


         *************************************************************
         *                GEOMETRY OPTIMIZATION CYCLE   1            *
         *************************************************************
---------------------------------
CARTESIAN COORDINATES (ANGSTROEM)
---------------------------------
  O      1.103300   -1.286000    1.267300
  O      1.553700   -1.050900   -0.942600
  N      1.731300    1.754500    0.012000
  C     -1.802100    0.190500   -0.408700
  C     -0.564300    1.079300   -0.649400
  C      0.624900    0.840800    0.294800
  C     -2.342300    0.318300    1.016000
  C     -1.450900   -1.271900   -0.698400
  C      1.146400   -0.574700    0.109000
  H     -2.582400    0.508400   -1.111400
  H     -0.244500    0.957300   -1.693700
  H     -0.879800    2.127300   -0.553100
  H      0.326700    0.988000    1.337500
  H     -1.648800   -0.080300    1.762900
  H     -2.544700    1.366100    1.261000
  H     -3.282800   -0.234700    1.115500
  H     -0.859000   -1.387100   -1.610900
  H     -0.991400   -1.796300    0.139800
  H     -2.386600   -1.816700   -0.882300
  H      1.415400    2.715900    0.137200
  H      1.998600    1.678500   -0.969400
  H      1.434700   -2.201300    1.146000

----------------------------
CARTESIAN COORDINATES (A.U.)
----------------------------
  NO LB      ZA    FRAG     MASS         X           Y           Z
   0 O     8.0000    0    15.999    2.084935   -2.430188    2.394850
   1 O     8.0000    0    15.999    2.936067   -1.985913   -1.781256
   2 N     7.0000    0    14.007    3.271683    3.315525    0.022677
   3 C     6.0000    0    12.011   -3.405475    0.359993   -0.772331
   4 C     6.0000    0    12.011   -1.066372    2.039581   -1.227188
   5 C     6.0000    0    12.011    1.180890    1.588882    0.557091
   6 C     6.0000    0    12.011   -4.426306    0.601500    1.919962
   7 C     6.0000    0    12.011   -2.741804   -2.403543   -1.319785
   8 C     6.0000    0    12.011    2.166382   -1.086026    0.205980
   9 H     1.0000    0     1.008   -4.880029    0.960737   -2.100242
  10 H     1.0000    0     1.008   -0.462038    1.809035   -3.200629
  11 H     1.0000    0     1.008   -1.662581    4.020014   -1.045208
  12 H     1.0000    0     1.008    0.617374    1.867049    2.527509
  13 H     1.0000    0     1.008   -3.115780   -0.151745    3.331398
  14 H     1.0000    0     1.008   -4.808786    2.581555    2.382945
  15 H     1.0000    0     1.008   -6.203593   -0.443519    2.107990
  16 H     1.0000    0     1.008   -1.623275   -2.621239   -3.044160
  17 H     1.0000    0     1.008   -1.873474   -3.394515    0.264184
  18 H     1.0000    0     1.008   -4.510020   -3.433065   -1.667305
  19 H     1.0000    0     1.008    2.674718    5.132307    0.259270
  20 H     1.0000    0     1.008    3.776807    3.171905   -1.831901
  21 H     1.0000    0     1.008    2.711190   -4.159854    2.165626

--------------------------------
INTERNAL COORDINATES (ANGSTROEM)
--------------------------------
 O      0   0   0     0.000000000000     0.00000000     0.00000000
 O      1   0   0     2.267551582655     0.00000000     0.00000000
 N      2   1   0     2.968681875850    78.25706651     0.00000000
 C      2   1   3     3.617667316103    72.99220385   285.91351812
 C      4   2   1     1.542741316618    55.27823803   105.08452436
 C      3   2   1     1.462513073446    55.00785732   310.43300995
 C      4   2   1     1.529025496844   119.59832301     7.09329275
 C      4   2   1     1.531627007466    55.37140190   272.57327363
 C      2   1   3     1.224141450160    30.34875521   334.99163650
 H      4   2   1     1.097139822447   131.65444973   188.08855457
 H      5   4   2     1.098962478886   108.52903991    69.94359209
 H      5   4   2     1.098689191719   107.78599921   184.12419821
 H      6   3   2     1.094447061305   107.83753554   139.47889701
 H      7   4   2     1.094387417691   112.43244463   354.91804187
 H      7   4   2     1.094931778697   110.71890825   116.12671498
 H      7   4   2     1.095558989740   110.22625533   235.18989694
 H      8   4   2     1.093742611404   112.48598981   305.72495912
 H      8   4   2     1.090282004804   114.23384985    73.80431583
 H      8   4   2     1.098253495328   108.05629088   189.53835850
 H      3   2   1     1.019685152388   155.77350261   255.26974407
 H      3   2   1     1.019985906765    68.64611658   174.67923897
 H      1   2   3     0.980975912039    84.78623840   205.12209739

---------------------------
INTERNAL COORDINATES (A.U.)
---------------------------
 O      0   0   0     0.000000000000     0.00000000     0.00000000
 O      1   0   0     4.285051485757     0.00000000     0.00000000
 N      2   1   0     5.609995724092    78.25706651     0.00000000
 C      2   1   3     6.836400471073    72.99220385   285.91351812
 C      4   2   1     2.915358583893    55.27823803   105.08452436
 C      3   2   1     2.763749176092    55.00785732   310.43300995
 C      4   2   1     2.889439440819   119.59832301     7.09329275
 C      4   2   1     2.894355583429    55.37140190   272.57327363
 C      2   1   3     2.313292089984    30.34875521   334.99163650
 H      4   2   1     2.073293795045   131.65444973   188.08855457
 H      5   4   2     2.076738116550   108.52903991    69.94359209
 H      5   4   2     2.076221678648   107.78599921   184.12419821
 H      6   3   2     2.068205213942   107.83753554   139.47889701
 H      7   4   2     2.068092503845   112.43244463   354.91804187
 H      7   4   2     2.069121197064   110.71890825   116.12671498
 H      7   4   2     2.070306454164   110.22625533   235.18989694
 H      8   4   2     2.066873996553   112.48598981   305.72495912
 H      8   4   2     2.060334397823   114.23384985    73.80431583
 H      8   4   2     2.075398331792   108.05629088   189.53835850
 H      3   2   1     1.926925680839   155.77350261   255.26974407
 H      3   2   1     1.927494024246    68.64611658   174.67923897
 H      1   2   3     1.853775817727    84.78623840   205.12209739

---------------------
BASIS SET INFORMATION
---------------------
There are 4 groups of distinct atoms

 Group   1 Type O   : 10s4p1d contracted to 3s2p1d pattern {631/31/1}
 Group   2 Type N   : 10s4p1d contracted to 3s2p1d pattern {631/31/1}
 Group   3 Type C   : 10s4p1d contracted to 3s2p1d pattern {631/31/1}
 Group   4 Type H   : 4s1p contracted to 2s1p pattern {31/1}

Atom   0O    basis set group =>   1
Atom   1O    basis set group =>   1
Atom   2N    basis set group =>   2
Atom   3C    basis set group =>   3
Atom   4C    basis set group =>   3
Atom   5C    basis set group =>   3
Atom   6C    basis set group =>   3
Atom   7C    basis set group =>   3
Atom   8C    basis set group =>   3
Atom   9H    basis set group =>   4
Atom  10H    basis set group =>   4
Atom  11H    basis set group =>   4
Atom  12H    basis set group =>   4
Atom  13H    basis set group =>   4
Atom  14H    basis set group =>   4
Atom  15H    basis set group =>   4
Atom  16H    basis set group =>   4
Atom  17H    basis set group =>   4
Atom  18H    basis set group =>   4
Atom  19H    basis set group =>   4
Atom  20H    basis set group =>   4
Atom  21H    basis set group =>   4
---------------------------------
AUXILIARY/J BASIS SET INFORMATION
---------------------------------
There are 4 groups of distinct atoms

 Group   1 Type O   : 12s5p4d2f1g contracted to 6s4p3d1f1g pattern {711111/2111/211/2/1}
 Group   2 Type N   : 12s5p4d2f1g contracted to 6s4p3d1f1g pattern {711111/2111/211/2/1}
 Group   3 Type C   : 12s5p4d2f1g contracted to 6s4p3d1f1g pattern {711111/2111/211/2/1}
 Group   4 Type H   : 5s2p1d contracted to 3s1p1d pattern {311/2/1}

Atom   0O    basis set group =>   1
Atom   1O    basis set group =>   1
Atom   2N    basis set group =>   2
Atom   3C    basis set group =>   3
Atom   4C    basis set group =>   3
Atom   5C    basis set group =>   3
Atom   6C    basis set group =>   3
Atom   7C    basis set group =>   3
Atom   8C    basis set group =>   3
Atom   9H    basis set group =>   4
Atom  10H    basis set group =>   4
Atom  11H    basis set group =>   4
Atom  12H    basis set group =>   4
Atom  13H    basis set group =>   4
Atom  14H    basis set group =>   4
Atom  15H    basis set group =>   4
Atom  16H    basis set group =>   4
Atom  17H    basis set group =>   4
Atom  18H    basis set group =>   4
Atom  19H    basis set group =>   4
Atom  20H    basis set group =>   4
Atom  21H    basis set group =>   4


           ************************************************************
           *        Program running with 2 parallel MPI-processes     *
           *              working on a common directory               *
           ************************************************************
------------------------------------------------------------------------------
                             ORCA STARTUP CALCULATIONS
                           -- RI-GTO INTEGRALS CHOSEN --
------------------------------------------------------------------------------
------------------------------------------------------------------------------
                   ___                                                        
                  /   \      - P O W E R E D   B Y -                         
                 /     \                                                     
                 |  |  |   _    _      __       _____    __    __             
                 |  |  |  | |  | |    /  \     |  _  \  |  |  /  |          
                  \  \/   | |  | |   /    \    | | | |  |  | /  /          
                 / \  \   | |__| |  /  /\  \   | |_| |  |  |/  /          
                |  |  |   |  __  | /  /__\  \  |    /   |      \           
                |  |  |   | |  | | |   __   |  |    \   |  |\   \          
                \     /   | |  | | |  |  |  |  | |\  \  |  | \   \       
                 \___/    |_|  |_| |__|  |__|  |_| \__\ |__|  \__/        
                                                                              
                      - O R C A' S   B I G   F R I E N D -                    
                                      &                                       
                       - I N T E G R A L  F E E D E R -                       
                                                                              
 v1 FN, 2020, v2 2021, v3 2022-2024                                           
------------------------------------------------------------------------------


----------------------
SHARK INTEGRAL PACKAGE
----------------------

Number of atoms                             ...     22
Number of basis functions                   ...    191
Number of shells                            ...     93
Maximum angular momentum                    ...      2
Integral batch strategy                     ... SHARK/LIBINT Hybrid
RI-J (if used) integral strategy            ... SPLIT-RIJ (Revised 2003 algorithm where possible)
Printlevel                                  ...      1
Contraction scheme used                     ... SEGMENTED contraction
Prescreening option                         ... SCHWARTZ
   Thresh                                   ... 2.500e-11
   Tcut                                     ... 2.500e-12
   Tpresel                                  ... 2.500e-12 
Coulomb Range Separation                    ... NOT USED
Exchange Range Separation                   ... NOT USED
Multipole approximations                    ... NOT USED
Finite Nucleus Model                        ... NOT USED
CABS basis                                  ... NOT available
Auxiliary Coulomb fitting basis             ... AVAILABLE
   # of basis functions in Aux-J            ...    584
   # of shells in Aux-J                     ...    200
   Maximum angular momentum in Aux-J        ...      4
Auxiliary J/K fitting basis                 ... NOT available
Auxiliary Correlation fitting basis         ... NOT available
Auxiliary 'external' fitting basis          ... NOT available

Checking pre-screening integrals            ... done (  0.0 sec) Dimension = 93
   => SHARK Basis and OBASIS are compatible. Storing Pre-screening
Shell pair information
Shell pair cut-off parameter TPreSel        ...   2.5e-12
Total number of shell pairs                 ...      4371
Shell pairs after pre-screening             ...      4037
Total number of primitive shell pairs       ...     20328
Primitive shell pairs kept                  ...     12575
          la=0 lb=0:   1326 shell pairs
          la=1 lb=0:   1503 shell pairs
          la=1 lb=1:    449 shell pairs
          la=2 lb=0:    453 shell pairs
          la=2 lb=1:    261 shell pairs
          la=2 lb=2:     45 shell pairs

Checking whether 4 symmetric matrices of dimension 191 fit in memory
:Max Core in MB      =   3000.00
 MB in use           =      8.80
 MB left             =   2991.20
 MB needed           =      0.56
 Data fit in memory  = YES
Calculating RI/J V-Matrix + Cholesky decomp.... done (  0.0 sec)
Calculating Nuclear repulsion               ... done (  0.0 sec) ENN=    500.744028122818 Eh

Diagonalization of the overlap matrix:
Smallest eigenvalue                        ... 3.127e-03
Time for diagonalization                   ...    0.005 sec
Threshold for overlap eigenvalues          ... 1.000e-07
Number of eigenvalues below threshold      ... 0
Time for construction of square roots      ...    0.002 sec
Total time needed                          ...    0.008 sec

-------------------
DFT GRID GENERATION
-------------------

General Integration Accuracy     IntAcc      ... 4.388
Radial Grid Type                 RadialGrid  ... OptM3 with GC (2021)
Angular Grid (max. ang.)         AngularGrid ... 4 (Lebedev-302)
Angular grid pruning method      GridPruning ... 4 (adaptive)
Weight generation scheme         WeightScheme... mBecke (2022)
Basis function cutoff            BFCut       ... 1.0000e-11
Integration weight cutoff        WCut        ... 1.0000e-14
Partially contracted basis set               ... off
Rotationally invariant grid construction     ... off
Angular grids for H and He will be reduced by one unit

Total number of grid points                  ...    95453
Total number of batches                      ...     1502
Average number of points per batch           ...       63
Average number of grid points per atom       ...     4339

--------------------
COSX GRID GENERATION
--------------------

GRIDX 1
-------
General Integration Accuracy     IntAcc      ... 3.816
Radial Grid Type                 RadialGrid  ... OptM3 with GC (2021)
Angular Grid (max. ang.)         AngularGrid ... 1 (Lebedev-50)
Angular grid pruning method      GridPruning ... 4 (adaptive)
Weight generation scheme         WeightScheme... mBecke (2022)
Basis function cutoff            BFCut       ... 1.0000e-11
Integration weight cutoff        WCut        ... 1.0000e-14
Partially contracted basis set               ... on
Rotationally invariant grid construction     ... off
Angular grids for H and He will be reduced by one unit

Total number of grid points                  ...    12234
Total number of batches                      ...      110
Average number of points per batch           ...      111
Average number of grid points per atom       ...      556
UseSFitting                                  ... on

GRIDX 2
-------
General Integration Accuracy     IntAcc      ... 4.020
Radial Grid Type                 RadialGrid  ... OptM3 with GC (2021)
Angular Grid (max. ang.)         AngularGrid ... 2 (Lebedev-110)
Angular grid pruning method      GridPruning ... 4 (adaptive)
Weight generation scheme         WeightScheme... mBecke (2022)
Basis function cutoff            BFCut       ... 1.0000e-11
Integration weight cutoff        WCut        ... 1.0000e-14
Partially contracted basis set               ... on
Rotationally invariant grid construction     ... off
Angular grids for H and He will be reduced by one unit

Total number of grid points                  ...    25728
Total number of batches                      ...      213
Average number of points per batch           ...      120
Average number of grid points per atom       ...     1169
UseSFitting                                  ... on

GRIDX 3
-------
General Integration Accuracy     IntAcc      ... 4.338
Radial Grid Type                 RadialGrid  ... OptM3 with GC (2021)
Angular Grid (max. ang.)         AngularGrid ... 3 (Lebedev-194)
Angular grid pruning method      GridPruning ... 4 (adaptive)
Weight generation scheme         WeightScheme... mBecke (2022)
Basis function cutoff            BFCut       ... 1.0000e-11
Integration weight cutoff        WCut        ... 1.0000e-14
Partially contracted basis set               ... on
Rotationally invariant grid construction     ... off
Angular grids for H and He will be reduced by one unit

Total number of grid points                  ...    56091
Total number of batches                      ...      451
Average number of points per batch           ...      124
Average number of grid points per atom       ...     2550
UseSFitting                                  ... on
Grids setup in   1.9 sec
Initializing property integral containers    ... done (  0.0 sec)

SHARK setup successfully completed in   2.3 seconds

Maximum memory used throughout the entire STARTUP-calculation: 32.8 MB


           ************************************************************
           *        Program running with 2 parallel MPI-processes     *
           *              working on a common directory               *
           ************************************************************
-------------------------------------------------------------------------------
                                 ORCA GUESS
                   Start orbitals & Density for SCF / CASSCF
-------------------------------------------------------------------------------

------------
SCF SETTINGS
------------
Hamiltonian:
 Density Functional     Method          .... DFT(GTOs)
 Exchange Functional    Exchange        .... B88
   X-Alpha parameter    XAlpha          ....  0.666667
   Becke's b parameter  XBeta           ....  0.004200
 Correlation Functional Correlation     .... LYP
 LDA part of GGA corr.  LDAOpt          .... VWN-5
 Gradients option       PostSCFGGA      .... off
 Hybrid DFT is turned on
   Fraction HF Exchange ScalHFX         ....  0.200000
   Scaling of DF-GGA-X  ScalDFX         ....  0.720000
   Scaling of DF-GGA-C  ScalDFC         ....  0.810000
   Scaling of DF-LDA-C  ScalLDAC        ....  1.000000
   Perturbative correction              ....  0.000000
   NL short-range parameter             ....  4.800000
 RI-approximation to the Coulomb term is turned on
   Number of AuxJ basis functions       .... 584
   RIJ-COSX (HFX calculated with COS-X)).... on


General Settings:
 Integral files         IntName         .... /kaggle/working/Leu-1/Leu_InterFrag
 Hartree-Fock type      HFTyp           .... RHF
 Total Charge           Charge          ....    0
 Multiplicity           Mult            ....    1
 Number of Electrons    NEL             ....   72
 Basis Dimension        Dim             ....  191
 Nuclear Repulsion      ENuc            ....    500.7440281228 Eh

Convergence Acceleration:
 AO-DIIS                CNVDIIS         .... on
   Start iteration      DIISMaxIt       ....    12
   Startup error        DIISStart       ....  0.200000
   # of expansion vecs  DIISMaxEq       ....     5
   Bias factor          DIISBfac        ....   1.050
   Max. coefficient     DIISMaxC        ....  10.000
 MO-DIIS                CNVKDIIS        .... off
 Trust-Rad. Augm. Hess. CNVTRAH         .... auto
   Auto Start mean grad. ratio tolernc. ....  1.125000
   Auto Start start iteration           ....    50
   Auto Start num. interpolation iter.  ....    10
   Max. Number of Micro iterations      ....    24
   Max. Number of Macro iterations      .... Maxiter - #DIIS iter
   Number of Davidson start vectors     ....     2
   Converg. threshold    (grad. norm)   ....   1.000e-05
   Grad. Scal. Fac. for Micro threshold ....   0.100
   Minimum threshold for Micro iter.    ....   1.000e-02
   NR start threshold (gradient norm)   ....   1.000e-04
   Initial trust radius                 ....   0.400
   Minimum AH scaling param. (alpha)    ....   1.000
   Maximum AH scaling param. (alpha)    .... 1000.000
   Quad. conv. algorithm                .... NR
   White noise on init. David. guess    .... on
   Maximum white noise                  ....   0.010
   Pseudo random numbers                .... off
   Inactive MOs                         .... canonical
   Orbital update algorithm             .... Taylor
   Preconditioner                       .... Diag
   Full preconditioner red. dimension   ....   250
 SOSCF                 CNVSOSCF           .... on
   Start iteration     SOSCFMaxIt         ....   150
   Startup grad/error  SOSCFStart         ....  0.000330
   Hessian update      SOSCFHessUp        .... L-BFGS
   Autom. constraints  SOSCFAutoConstrain .... off
 Level Shifting         CNVShift        .... on
   Level shift para.    LevelShift      ....    0.2500
   Turn off err/grad.   ShiftErr        ....    0.0010
 Zerner damping         CNVZerner       .... off
 Static damping         CNVDamp         .... on
   Fraction old density DampFac         ....    0.7000
   Max. Damping (<1)    DampMax         ....    0.9800
   Min. Damping (>=0)   DampMin         ....    0.0000
   Turn off err/grad.   DampErr         ....    0.1000

SCF Procedure:
 Maximum # iterations   MaxIter         ....  1000
 SCF integral mode      SCFMode         .... Direct
   Integral package                     .... SHARK and LIBINT hybrid scheme
 Reset frequency        DirectResetFreq ....    20
 Integral Threshold     Thresh          ....  2.500e-11 Eh
 Primitive CutOff       TCut            ....  2.500e-12 Eh

Convergence Tolerance:
 Convergence Check Mode ConvCheckMode   .... Total+1el-Energy
 Convergence forced     ConvForced      .... 0
 Energy Change          TolE            ....  1.000e-08 Eh
 1-El. energy change                    ....  1.000e-05 Eh
 Orbital Gradient       TolG            ....  1.000e-05
 Orbital Rotation angle TolX            ....  1.000e-05
 DIIS Error             TolErr          ....  5.000e-07

------------------------------
INITIAL GUESS: MODEL POTENTIAL
------------------------------
Loading Hartree-Fock densities                     ... done
Calculating cut-offs                               ... done
Initializing the effective Hamiltonian             ... done
Setting up the integral package (SHARK)            ... done
Starting the Coulomb interaction                   ... done (   0.2 sec)
Making the grid                                    ... done (   0.2 sec)
Mapping shells                                     ... done
Starting the XC term evaluation                    ... done (   0.2 sec)
  promolecular density results
     # of electrons  =     71.988834392
     EX              =    -57.686234358
     EC              =     -2.413372981
     EX+EC           =    -60.099607339
Transforming the Hamiltonian                       ... done (   0.0 sec)
Diagonalizing the Hamiltonian                      ... done (   0.0 sec)
Back transforming the eigenvectors                 ... done (   0.0 sec)
Now organizing SCF variables                       ... done
                      ------------------
                      INITIAL GUESS DONE (   0.6 sec)
                      ------------------
             **** ENERGY FILE WAS UPDATED (/kaggle/working/Leu-1/Leu_InterFrag.en.tmp) ****
Finished Guess after   0.9 sec
Maximum memory used throughout the entire GUESS-calculation: 12.7 MB


           ************************************************************
           *        Program running with 2 parallel MPI-processes     *
           *              working on a common directory               *
           ************************************************************

-------------------------------------------------------------------------------------------
                                      ORCA LEAN-SCF
                              memory conserving SCF solver
-------------------------------------------------------------------------------------------

--------------------
CPCM SOLVATION MODEL
--------------------
CPCM parameters:
  Epsilon                                         ...      78.3550
  Refrac                                          ...       1.3328
  Rsolv                                           ...       1.3000
  Surface type                                    ... GAUSSIAN VDW
  Discretization scheme                           ... Constant charge density
    Threshold for H atoms                         ...       5.0000 (charges/Ang^2)
    Threshold for non-H atoms                     ...       5.0000 (charges/Ang^2)
  Epsilon function type                           ...         CPCM
Solvent:                                          ... WATER
SMD-CDS solvent descriptors:
  Soln                                            ...       1.3328
  Soln25                                          ...       1.3323
  Sola                                            ...       0.0000
  Solb                                            ...       0.0000
  Solg                                            ...       0.0000
  Solc                                            ...       0.0000
  Solh                                            ...       0.0000
Radii:
  Scheme                                          ... Element-dependent radii
  Radius for O  used is    2.8724 Bohr (=   1.5200 Ang.)
  Radius for N  used is    3.5716 Bohr (=   1.8900 Ang.)
  Radius for C  used is    3.4960 Bohr (=   1.8500 Ang.)
  Radius for H  used is    2.2677 Bohr (=   1.2000 Ang.)
Calculating surface                               ...        done! (  0.0s)
Cavity surface points                             ...         1581
Cavity Volume                                     ...     965.8955
Cavity Surface-area                               ...     609.1445
Calculating surface distance matrix               ...        done! (  0.0s)
Performing Cholesky decomposition & store         ...        done! (  0.1s)
Overall time for CPCM initialization              ...                 0.1s

----------------------------------------D-I-I-S--------------------------------------------
Iteration    Energy (Eh)           Delta-E    RMSDP     MaxDP     DIISErr   Damp  Time(sec)
-------------------------------------------------------------------------------------------
               ***  Starting incremental Fock matrix formation  ***
    1    -441.0785705580393028     0.00e+00  4.42e-03  8.99e-02  2.54e-01  0.700   4.8
    2    -441.2493568932238190    -1.71e-01  3.03e-03  5.19e-02  1.14e-01  0.700   2.8
                               ***Turning on AO-DIIS***
    3    -441.3142453854237033    -6.49e-02  1.21e-03  1.65e-02  3.68e-02  0.700   2.4
    4    -441.3529579733953483    -3.87e-02  1.82e-03  2.06e-02  1.65e-02  0.000   2.2
    5    -441.4383565998851395    -8.54e-02  4.21e-04  7.10e-03  7.25e-03  0.000   2.3
    6    -441.4388900670886073    -5.33e-04  1.38e-04  2.08e-03  2.34e-03  0.000   2.1
    7    -441.4389277847395192    -3.77e-05  5.03e-05  8.00e-04  4.87e-04  0.000   2.0
               *** Restarting incremental Fock matrix formation ***
                             ****Resetting DIIS****
                              *** Initializing SOSCF ***
---------------------------------------S-O-S-C-F--------------------------------------
Iteration    Energy (Eh)           Delta-E    RMSDP     MaxDP     MaxGrad    Time(sec)
--------------------------------------------------------------------------------------
    8    -441.4389061444909998     2.16e-05  3.05e-05  3.94e-04  1.47e-04     4.2
               *** Restarting incremental Fock matrix formation ***
    9    -441.4389063774256670    -2.33e-07  1.75e-05  5.34e-04  1.14e-04     4.2
   10    -441.4389059390662737     4.38e-07  1.12e-05  3.67e-04  2.23e-04     2.6
   11    -441.4389065776903749    -6.39e-07  3.02e-06  5.36e-05  1.12e-05     2.4
   12    -441.4389065688880578     8.80e-09  1.68e-06  3.12e-05  1.52e-05     2.2
                 **** Energy Check signals convergence ****

               *****************************************************
               *                     SUCCESS                       *
               *           SCF CONVERGED AFTER  12 CYCLES          *
               *****************************************************

Recomputing exchange energy using gridx3       ... done (    6.368 sec)
Old exchange energy                            :    -11.777431155 Eh
New exchange energy                            :    -11.777467311 Eh
Exchange energy change after final integration :     -0.000036156 Eh
Total energy after final integration           :   -441.438942746 Eh

SMD CDS free energy correction energy :                 3.68241     Kcal/mol
Total Energy after SMD CDS correction =              -441.433074448 Eh
             **** ENERGY FILE WAS UPDATED (/kaggle/working/Leu-1/Leu_InterFrag.en.tmp) ****

----------------
TOTAL SCF ENERGY
----------------

Total Energy       :       -441.43307444797222 Eh          -12012.00463 eV

Components:
Nuclear Repulsion  :        500.74402812281807 Eh           13625.93773 eV
Electronic Energy  :       -942.15910469944356 Eh          -25637.45262 eV
One Electron Energy:      -1593.51904612950375 Eh          -43361.85772 eV
Two Electron Energy:        651.35994143006019 Eh           17724.40510 eV
CPCM Dielectric    :         -0.02383001334380 Eh              -0.64845 eV
SMD CDS (Gcds)     :          0.00586829807690 Eh               0.15968 eV

Virial components:
Potential Energy   :       -880.07679979663521 Eh          -23948.10722 eV
Kinetic Energy     :        438.64372534866294 Eh           11936.10259 eV
Virial Ratio       :          2.00635903111823

DFT components:
N(Alpha)           :       35.999928471601 electrons
N(Beta)            :       35.999928471601 electrons
N(Total)           :       71.999856943201 electrons
E(X)               :      -46.745817186448 Eh       
E(C)               :       -2.849322136465 Eh       
E(XC)              :      -49.595139322913 Eh       

CPCM Solvation Model Properties:
Surface-charge          :         -0.03723188768435
Corrected charge        :         -0.00000000000000
Outlying charge corr.   :          0.00010482597738 Eh               0.00285 eV
Free-energy (cav+disp)  :          0.00586829807690 Eh               0.15968 eV

---------------
SCF CONVERGENCE
---------------

  Last Energy change         ...   -8.8023e-09  Tolerance :   1.0000e-08
  Last MAX-Density change    ...    3.1220e-05  Tolerance :   1.0000e-07
  Last RMS-Density change    ...    1.6785e-06  Tolerance :   5.0000e-09
  Last DIIS Error            ...    1.4660e-04  Tolerance :   5.0000e-07
  Last Orbital Gradient      ...    1.5248e-05  Tolerance :   1.0000e-05
  Last Orbital Rotation      ...    1.5290e-05  Tolerance :   1.0000e-05


----------------
ORBITAL ENERGIES
----------------

  NO   OCC          E(Eh)            E(eV) 
   0   2.0000     -19.187360      -522.1146 
   1   2.0000     -19.140155      -520.8301 
   2   2.0000     -14.304198      -389.2370 
   3   2.0000     -10.318516      -280.7811 
   4   2.0000     -10.211875      -277.8792 
   5   2.0000     -10.170912      -276.7646 
   6   2.0000     -10.163714      -276.5687 
   7   2.0000     -10.154206      -276.3100 
   8   2.0000     -10.149796      -276.1900 
   9   2.0000      -1.094633       -29.7865 
  10   2.0000      -1.010399       -27.4943 
  11   2.0000      -0.883346       -24.0371 
  12   2.0000      -0.793996       -21.6057 
  13   2.0000      -0.716649       -19.5010 
  14   2.0000      -0.668675       -18.1956 
  15   2.0000      -0.662447       -18.0261 
  16   2.0000      -0.584683       -15.9100 
  17   2.0000      -0.539481       -14.6800 
  18   2.0000      -0.518369       -14.1055 
  19   2.0000      -0.480406       -13.0725 
  20   2.0000      -0.473139       -12.8748 
  21   2.0000      -0.436687       -11.8829 
  22   2.0000      -0.425901       -11.5894 
  23   2.0000      -0.419625       -11.4186 
  24   2.0000      -0.418110       -11.3774 
  25   2.0000      -0.401567       -10.9272 
  26   2.0000      -0.381219       -10.3735 
  27   2.0000      -0.375314       -10.2128 
  28   2.0000      -0.357228        -9.7207 
  29   2.0000      -0.344869        -9.3844 
  30   2.0000      -0.321752        -8.7553 
  31   2.0000      -0.316657        -8.6167 
  32   2.0000      -0.308778        -8.4023 
  33   2.0000      -0.307184        -8.3589 
  34   2.0000      -0.278665        -7.5828 
  35   2.0000      -0.231589        -6.3018 
  36   0.0000       0.001334         0.0363 
  37   0.0000       0.093006         2.5308 
  38   0.0000       0.102133         2.7792 
  39   0.0000       0.118153         3.2151 
  40   0.0000       0.128814         3.5052 
  41   0.0000       0.154927         4.2158 
  42   0.0000       0.161897         4.4054 
  43   0.0000       0.175924         4.7871 
  44   0.0000       0.183637         4.9970 
  45   0.0000       0.189646         5.1605 
  46   0.0000       0.199828         5.4376 
  47   0.0000       0.208323         5.6687 
  48   0.0000       0.211039         5.7427 
  49   0.0000       0.223691         6.0869 
  50   0.0000       0.233500         6.3539 
  51   0.0000       0.243178         6.6172 
  52   0.0000       0.261265         7.1094 
  53   0.0000       0.269285         7.3276 
  54   0.0000       0.286598         7.7987 
  55   0.0000       0.299543         8.1510 
  56   0.0000       0.337469         9.1830 
  57   0.0000       0.373722        10.1695 
  58   0.0000       0.520518        14.1640 
  59   0.0000       0.523913        14.2564 
  60   0.0000       0.531641        14.4667 
  61   0.0000       0.547313        14.8931 
  62   0.0000       0.562146        15.2968 
  63   0.0000       0.573015        15.5925 
  64   0.0000       0.614364        16.7177 
  65   0.0000       0.619035        16.8448 
  66   0.0000       0.638639        17.3783 
  67   0.0000       0.659559        17.9475 
  68   0.0000       0.677932        18.4475 
  69   0.0000       0.703885        19.1537 
  70   0.0000       0.714734        19.4489 
  71   0.0000       0.723776        19.6950 
  72   0.0000       0.745249        20.2793 
  73   0.0000       0.761189        20.7130 
  74   0.0000       0.773992        21.0614 
  75   0.0000       0.786957        21.4142 
  76   0.0000       0.801388        21.8069 
  77   0.0000       0.817011        22.2320 
  78   0.0000       0.828702        22.5501 
  79   0.0000       0.859050        23.3759 
  80   0.0000       0.872032        23.7292 
  81   0.0000       0.886811        24.1314 
  82   0.0000       0.894753        24.3475 
  83   0.0000       0.906783        24.6748 
  84   0.0000       0.912416        24.8281 
  85   0.0000       0.931618        25.3506 
  86   0.0000       0.937501        25.5107 
  87   0.0000       0.941913        25.6308 
  88   0.0000       0.951953        25.9040 
  89   0.0000       0.979441        26.6519 
  90   0.0000       0.985423        26.8147 
  91   0.0000       1.002452        27.2781 
  92   0.0000       1.005004        27.3476 
  93   0.0000       1.041713        28.3465 
  94   0.0000       1.051475        28.6121 
  95   0.0000       1.069556        29.1041 
  96   0.0000       1.112543        30.2738 
  97   0.0000       1.142213        31.0812 
  98   0.0000       1.155266        31.4364 
  99   0.0000       1.206517        32.8310 
 100   0.0000       1.303330        35.4654 
 101   0.0000       1.313826        35.7510 
 102   0.0000       1.351547        36.7775 
 103   0.0000       1.386570        37.7305 
 104   0.0000       1.443022        39.2666 
 105   0.0000       1.469821        39.9959 
 106   0.0000       1.475287        40.1446 
 107   0.0000       1.516834        41.2752 
 108   0.0000       1.518139        41.3107 
 109   0.0000       1.586215        43.1631 
 110   0.0000       1.613072        43.8939 
 111   0.0000       1.638997        44.5994 
 112   0.0000       1.658100        45.1192 
 113   0.0000       1.700962        46.2855 
 114   0.0000       1.729531        47.0629 
 115   0.0000       1.762338        47.9557 
 116   0.0000       1.767894        48.1068 
 117   0.0000       1.790711        48.7277 
 118   0.0000       1.811969        49.3062 
 119   0.0000       1.819355        49.5072 
 120   0.0000       1.841099        50.0989 
 121   0.0000       1.864682        50.7406 
 122   0.0000       1.874659        51.0121 
 123   0.0000       1.906838        51.8877 
 124   0.0000       1.925496        52.3954 
 125   0.0000       1.956154        53.2297 
 126   0.0000       1.974484        53.7284 
 127   0.0000       1.990665        54.1687 
 128   0.0000       2.027586        55.1734 
 129   0.0000       2.059009        56.0285 
 130   0.0000       2.068438        56.2851 
 131   0.0000       2.084212        56.7143 
 132   0.0000       2.115848        57.5752 
 133   0.0000       2.123335        57.7789 
 134   0.0000       2.132057        58.0162 
 135   0.0000       2.139395        58.2159 
 136   0.0000       2.155944        58.6662 
 137   0.0000       2.188573        59.5541 
 138   0.0000       2.194564        59.7171 
 139   0.0000       2.212436        60.2035 
 140   0.0000       2.228709        60.6463 
 141   0.0000       2.276906        61.9578 
 142   0.0000       2.279502        62.0284 
 143   0.0000       2.315249        63.0011 
 144   0.0000       2.331816        63.4519 
 145   0.0000       2.346978        63.8645 
 146   0.0000       2.361749        64.2665 
 147   0.0000       2.373975        64.5991 
 148   0.0000       2.406617        65.4874 
 149   0.0000       2.422409        65.9171 
 150   0.0000       2.436290        66.2948 
 151   0.0000       2.478704        67.4490 
 152   0.0000       2.499589        68.0173 
 153   0.0000       2.509440        68.2853 
 154   0.0000       2.555937        69.5506 
 155   0.0000       2.581193        70.2378 
 156   0.0000       2.591249        70.5115 
 157   0.0000       2.639101        71.8136 
 158   0.0000       2.676434        72.8295 
 159   0.0000       2.697281        73.3968 
 160   0.0000       2.711627        73.7871 
 161   0.0000       2.740389        74.5698 
 162   0.0000       2.748632        74.7941 
 163   0.0000       2.754134        74.9438 
 164   0.0000       2.775589        75.5276 
 165   0.0000       2.790967        75.9461 
 166   0.0000       2.826441        76.9114 
 167   0.0000       2.836027        77.1722 
 168   0.0000       2.878851        78.3375 
 169   0.0000       2.909431        79.1696 
 170   0.0000       2.914910        79.3187 
 171   0.0000       2.923773        79.5599 
 172   0.0000       2.951065        80.3026 
 173   0.0000       2.965263        80.6889 
 174   0.0000       2.978419        81.0469 
 175   0.0000       2.984417        81.2101 
 176   0.0000       3.087424        84.0131 
 177   0.0000       3.160204        85.9935 
 178   0.0000       3.208209        87.2998 
 179   0.0000       3.264940        88.8435 
 180   0.0000       3.330211        90.6197 
 181   0.0000       3.332212        90.6741 
 182   0.0000       3.366305        91.6018 
 183   0.0000       3.406822        92.7043 
 184   0.0000       3.450681        93.8978 
 185   0.0000       3.459657        94.1421 
 186   0.0000       3.486584        94.8748 
 187   0.0000       3.500197        95.2452 
 188   0.0000       3.549667        96.5914 
 189   0.0000       3.560840        96.8954 
 190   0.0000       3.571178        97.1767 

                    ********************************
                    * MULLIKEN POPULATION ANALYSIS *
                    ********************************

-----------------------
MULLIKEN ATOMIC CHARGES
-----------------------
   0 O :   -0.499754
   1 O :   -0.513356
   2 N :   -0.632621
   3 C :   -0.046493
   4 C :   -0.187608
   5 C :    0.000677
   6 C :   -0.325026
   7 C :   -0.337940
   8 C :    0.579449
   9 H :    0.094503
  10 H :    0.101360
  11 H :    0.101623
  12 H :    0.134825
  13 H :    0.111224
  14 H :    0.101069
  15 H :    0.102142
  16 H :    0.106782
  17 H :    0.112906
  18 H :    0.091440
  19 H :    0.271390
  20 H :    0.262277
  21 H :    0.371129
Sum of atomic charges:    0.0000000

--------------------------------
MULLIKEN REDUCED ORBITAL CHARGES
--------------------------------
  0 O s       :     3.829197  s :     3.829197
      pz      :     1.558957  p :     4.649327
      px      :     1.738156
      py      :     1.352215
      dz2     :     0.007427  d :     0.021230
      dxz     :     0.004231
      dyz     :     0.004912
      dx2y2   :     0.002383
      dxy     :     0.002277

  1 O s       :     3.852549  s :     3.852549
      pz      :     1.463345  p :     4.635087
      px      :     1.470977
      py      :     1.700765
      dz2     :     0.007462  d :     0.025719
      dxz     :     0.007502
      dyz     :     0.006468
      dx2y2   :     0.002310
      dxy     :     0.001977

  2 N s       :     3.592290  s :     3.592290
      pz      :     1.373417  p :     4.011738
      px      :     1.490287
      py      :     1.148034
      dz2     :     0.011975  d :     0.028593
      dxz     :     0.002259
      dyz     :     0.000699
      dx2y2   :     0.005954
      dxy     :     0.007706

  3 C s       :     3.197073  s :     3.197073
      pz      :     0.935060  p :     2.805335
      px      :     0.955102
      py      :     0.915173
      dz2     :     0.008841  d :     0.044085
      dxz     :     0.010758
      dyz     :     0.006427
      dx2y2   :     0.008509
      dxy     :     0.009549

  4 C s       :     3.225014  s :     3.225014
      pz      :     0.981252  p :     2.925264
      px      :     0.928859
      py      :     1.015153
      dz2     :     0.010523  d :     0.037331
      dxz     :     0.008505
      dyz     :     0.001804
      dx2y2   :     0.009201
      dxy     :     0.007298

  5 C s       :     3.189785  s :     3.189785
      pz      :     1.023525  p :     2.752572
      px      :     0.875910
      py      :     0.853136
      dz2     :     0.013727  d :     0.056965
      dxz     :     0.010888
      dyz     :     0.004690
      dx2y2   :     0.014155
      dxy     :     0.013505

  6 C s       :     3.240561  s :     3.240561
      pz      :     0.975281  p :     3.052443
      px      :     1.036210
      py      :     1.040951
      dz2     :     0.007881  d :     0.032022
      dxz     :     0.007642
      dyz     :     0.004686
      dx2y2   :     0.005830
      dxy     :     0.005983

  7 C s       :     3.245803  s :     3.245803
      pz      :     1.044175  p :     3.060097
      px      :     1.045911
      py      :     0.970011
      dz2     :     0.005958  d :     0.032040
      dxz     :     0.006967
      dyz     :     0.005965
      dx2y2   :     0.005110
      dxy     :     0.008039

  8 C s       :     3.003138  s :     3.003138
      pz      :     0.692337  p :     2.297745
      px      :     0.748158
      py      :     0.857249
      dz2     :     0.037154  d :     0.119668
      dxz     :     0.023567
      dyz     :     0.038362
      dx2y2   :     0.009360
      dxy     :     0.011224

  9 H s       :     0.894090  s :     0.894090
      pz      :     0.004172  p :     0.011406
      px      :     0.004665
      py      :     0.002570

 10 H s       :     0.887264  s :     0.887264
      pz      :     0.006490  p :     0.011376
      px      :     0.002490
      py      :     0.002396

 11 H s       :     0.886915  s :     0.886915
      pz      :     0.002337  p :     0.011462
      px      :     0.002600
      py      :     0.006525

 12 H s       :     0.854148  s :     0.854148
      pz      :     0.006977  p :     0.011027
      px      :     0.002321
      py      :     0.001729

 13 H s       :     0.877288  s :     0.877288
      pz      :     0.004341  p :     0.011488
      px      :     0.004151
      py      :     0.002995

 14 H s       :     0.887486  s :     0.887486
      pz      :     0.002435  p :     0.011445
      px      :     0.002553
      py      :     0.006457

 15 H s       :     0.886387  s :     0.886387
      pz      :     0.002252  p :     0.011471
      px      :     0.005705
      py      :     0.003514

 16 H s       :     0.881557  s :     0.881557
      pz      :     0.005467  p :     0.011661
      px      :     0.003986
      py      :     0.002208

 17 H s       :     0.875056  s :     0.875056
      pz      :     0.005064  p :     0.012038
      px      :     0.003560
      py      :     0.003413

 18 H s       :     0.897011  s :     0.897011
      pz      :     0.002599  p :     0.011549
      px      :     0.005548
      py      :     0.003402

 19 H s       :     0.705072  s :     0.705072
      pz      :     0.005708  p :     0.023537
      px      :     0.006136
      py      :     0.011693

 20 H s       :     0.714291  s :     0.714291
      pz      :     0.012304  p :     0.023432
      px      :     0.006792
      py      :     0.004335

 21 H s       :     0.591871  s :     0.591871
      pz      :     0.006206  p :     0.036999
      px      :     0.009649
      py      :     0.021144


------------------------
MULLIKEN OVERLAP CHARGES
------------------------
B(  0-O ,  1-O ) :  -0.1564 B(  0-O ,  5-C ) :  -0.1500 B(  0-O ,  8-C ) :   0.5829 
B(  0-O , 21-H ) :   0.5583 B(  1-O ,  5-C ) :  -0.1501 B(  1-O ,  8-C ) :   1.1638 
B(  2-N ,  4-C ) :  -0.1246 B(  2-N ,  5-C ) :   0.6423 B(  2-N ,  8-C ) :  -0.0697 
B(  2-N , 12-H ) :  -0.0722 B(  2-N , 19-H ) :   0.7004 B(  2-N , 20-H ) :   0.6879 
B(  3-C ,  4-C ) :   0.6873 B(  3-C ,  5-C ) :  -0.0554 B(  3-C ,  6-C ) :   0.7636 
B(  3-C ,  7-C ) :   0.7560 B(  3-C ,  9-H ) :   0.7700 B(  3-C , 10-H ) :  -0.0598 
B(  3-C , 11-H ) :  -0.0645 B(  3-C , 13-H ) :  -0.0575 B(  3-C , 14-H ) :  -0.0631 
B(  3-C , 15-H ) :  -0.0595 B(  3-C , 16-H ) :  -0.0612 B(  3-C , 17-H ) :  -0.0589 
B(  3-C , 18-H ) :  -0.0582 B(  4-C ,  5-C ) :   0.7222 B(  4-C ,  6-C ) :  -0.0999 
B(  4-C ,  7-C ) :  -0.0974 B(  4-C ,  8-C ) :  -0.0760 B(  4-C ,  9-H ) :  -0.0664 
B(  4-C , 10-H ) :   0.7379 B(  4-C , 11-H ) :   0.7473 B(  4-C , 12-H ) :  -0.0786 
B(  5-C ,  8-C ) :   0.6309 B(  5-C , 10-H ) :  -0.0688 B(  5-C , 11-H ) :  -0.0681 
B(  5-C , 12-H ) :   0.7554 B(  5-C , 19-H ) :  -0.0759 B(  5-C , 20-H ) :  -0.0807 
B(  6-C ,  7-C ) :  -0.1073 B(  6-C ,  9-H ) :  -0.0854 B(  6-C , 13-H ) :   0.7679 
B(  6-C , 14-H ) :   0.7552 B(  6-C , 15-H ) :   0.7580 B(  7-C ,  9-H ) :  -0.0820 
B(  7-C , 16-H ) :   0.7623 B(  7-C , 17-H ) :   0.7604 B(  7-C , 18-H ) :   0.7306 
B(  8-C , 12-H ) :  -0.0738 B( 10-H , 11-H ) :  -0.0690 B( 13-H , 14-H ) :  -0.0634 
B( 13-H , 15-H ) :  -0.0624 B( 14-H , 15-H ) :  -0.0608 B( 16-H , 17-H ) :  -0.0632 
B( 16-H , 18-H ) :  -0.0605 B( 17-H , 18-H ) :  -0.0643 B( 19-H , 20-H ) :  -0.0599 



                     *******************************
                     * LOEWDIN POPULATION ANALYSIS *
                     *******************************

----------------------
LOEWDIN ATOMIC CHARGES
----------------------
   0 O :   -0.163976
   1 O :   -0.296520
   2 N :   -0.279480
   3 C :   -0.066357
   4 C :   -0.128181
   5 C :   -0.037202
   6 C :   -0.202410
   7 C :   -0.213144
   8 C :    0.176995
   9 H :    0.070729
  10 H :    0.070552
  11 H :    0.071904
  12 H :    0.087524
  13 H :    0.069639
  14 H :    0.068301
  15 H :    0.070556
  16 H :    0.069452
  17 H :    0.071707
  18 H :    0.067128
  19 H :    0.141553
  20 H :    0.135600
  21 H :    0.215630

-------------------------------
LOEWDIN REDUCED ORBITAL CHARGES
-------------------------------
  0 O s       :     3.477837  s :     3.477837
      pz      :     1.578770  p :     4.640313
      px      :     1.707013
      py      :     1.354529
      dz2     :     0.015049  d :     0.045826
      dxz     :     0.005866
      dyz     :     0.013385
      dx2y2   :     0.006663
      dxy     :     0.004862

  1 O s       :     3.559707  s :     3.559707
      pz      :     1.528936  p :     4.684745
      px      :     1.460929
      py      :     1.694880
      dz2     :     0.016767  d :     0.052068
      dxz     :     0.013276
      dyz     :     0.014901
      dx2y2   :     0.003298
      dxy     :     0.003826

  2 N s       :     3.197965  s :     3.197965
      pz      :     1.366803  p :     4.025802
      px      :     1.491681
      py      :     1.167319
      dz2     :     0.020069  d :     0.055713
      dxz     :     0.005178
      dyz     :     0.002661
      dx2y2   :     0.012310
      dxy     :     0.015494

  3 C s       :     2.876045  s :     2.876045
      pz      :     1.035545  p :     3.090667
      px      :     1.033425
      py      :     1.021697
      dz2     :     0.022033  d :     0.099645
      dxz     :     0.022818
      dyz     :     0.013206
      dx2y2   :     0.019459
      dxy     :     0.022128

  4 C s       :     2.909873  s :     2.909873
      pz      :     1.054276  p :     3.137052
      px      :     1.019370
      py      :     1.063406
      dz2     :     0.021377  d :     0.081255
      dxz     :     0.019606
      dyz     :     0.003710
      dx2y2   :     0.019551
      dxy     :     0.017013

  5 C s       :     2.877289  s :     2.877289
      pz      :     1.076858  p :     3.032954
      px      :     0.987988
      py      :     0.968107
      dz2     :     0.028719  d :     0.126959
      dxz     :     0.025090
      dyz     :     0.009679
      dx2y2   :     0.032416
      dxy     :     0.031054

  6 C s       :     2.915994  s :     2.915994
      pz      :     1.048111  p :     3.221827
      px      :     1.085168
      py      :     1.088548
      dz2     :     0.017362  d :     0.064589
      dxz     :     0.015736
      dyz     :     0.009273
      dx2y2   :     0.011050
      dxy     :     0.011169

  7 C s       :     2.918477  s :     2.918477
      pz      :     1.089592  p :     3.230192
      px      :     1.097086
      py      :     1.043515
      dz2     :     0.011863  d :     0.064475
      dxz     :     0.013351
      dyz     :     0.011787
      dx2y2   :     0.011577
      dxy     :     0.015896

  8 C s       :     2.864107  s :     2.864107
      pz      :     0.930572  p :     2.679200
      px      :     0.777800
      py      :     0.970828
      dz2     :     0.093461  d :     0.279697
      dxz     :     0.051407
      dyz     :     0.091492
      dx2y2   :     0.019824
      dxy     :     0.023512

  9 H s       :     0.891401  s :     0.891401
      pz      :     0.013918  p :     0.037870
      px      :     0.015933
      py      :     0.008018

 10 H s       :     0.890462  s :     0.890462
      pz      :     0.023927  p :     0.038985
      px      :     0.008002
      py      :     0.007056

 11 H s       :     0.889417  s :     0.889417
      pz      :     0.006779  p :     0.038678
      px      :     0.008204
      py      :     0.023695

 12 H s       :     0.872638  s :     0.872638
      pz      :     0.025911  p :     0.039837
      px      :     0.007647
      py      :     0.006279

 13 H s       :     0.891084  s :     0.891084
      pz      :     0.015563  p :     0.039277
      px      :     0.014391
      py      :     0.009323

 14 H s       :     0.893074  s :     0.893074
      pz      :     0.007739  p :     0.038625
      px      :     0.007481
      py      :     0.023405

 15 H s       :     0.890855  s :     0.890855
      pz      :     0.007013  p :     0.038589
      px      :     0.020174
      py      :     0.011403

 16 H s       :     0.890814  s :     0.890814
      pz      :     0.019945  p :     0.039734
      px      :     0.012876
      py      :     0.006913

 17 H s       :     0.887065  s :     0.887065
      pz      :     0.018459  p :     0.041228
      px      :     0.011038
      py      :     0.011732

 18 H s       :     0.894443  s :     0.894443
      pz      :     0.007556  p :     0.038429
      px      :     0.019494
      py      :     0.011379

 19 H s       :     0.779769  s :     0.779769
      pz      :     0.016514  p :     0.078678
      px      :     0.020527
      py      :     0.041637

 20 H s       :     0.785492  s :     0.785492
      pz      :     0.045131  p :     0.078908
      px      :     0.022098
      py      :     0.011680

 21 H s       :     0.671176  s :     0.671176
      pz      :     0.019678  p :     0.113194
      px      :     0.029441
      py      :     0.064075


---------------------------------
LOEWDIN BOND ORDERS (THRESH 0.050000)
---------------------------------
B(  0-O ,  1-O ) :   0.1938 B(  0-O ,  5-C ) :   0.0649 B(  0-O ,  8-C ) :   1.3946 
B(  0-O , 21-H ) :   0.9727 B(  1-O ,  5-C ) :   0.0813 B(  1-O ,  8-C ) :   2.1637 
B(  2-N ,  4-C ) :   0.0718 B(  2-N ,  5-C ) :   1.1464 B(  2-N ,  8-C ) :   0.0633 
B(  2-N , 19-H ) :   0.9804 B(  2-N , 20-H ) :   0.9835 B(  3-C ,  4-C ) :   1.0306 
B(  3-C ,  6-C ) :   1.0590 B(  3-C ,  7-C ) :   1.0537 B(  3-C ,  9-H ) :   0.9121 
B(  4-C ,  5-C ) :   1.0139 B(  4-C ,  8-C ) :   0.0535 B(  4-C , 10-H ) :   0.9279 
B(  4-C , 11-H ) :   0.9253 B(  5-C ,  8-C ) :   0.9824 B(  5-C , 12-H ) :   0.9024 
B(  6-C , 13-H ) :   0.9564 B(  6-C , 14-H ) :   0.9583 B(  6-C , 15-H ) :   0.9575 
B(  7-C , 16-H ) :   0.9542 B(  7-C , 17-H ) :   0.9474 B(  7-C , 18-H ) :   0.9531 
B(  8-C , 21-H ) :   0.0520 

------------------------------------------
LOEWDIN REDUCED ORBITAL POPULATIONS PER MO
-------------------------------------------
THRESHOLD FOR PRINTING IS 0.1%%
                      0         1         2         3         4         5   
                 -19.18736 -19.14015 -14.30420 -10.31852 -10.21187 -10.17091
                   2.00000   2.00000   2.00000   2.00000   2.00000   2.00000
                  --------  --------  --------  --------  --------  --------
 0 O  s              99.9       0.0       0.0       0.0       0.0       0.0
 0 O  pz              0.0       0.0       0.0       0.1       0.0       0.0
 1 O  s               0.0      99.8       0.0       0.1       0.0       0.0
 1 O  pz              0.0       0.0       0.0       0.3       0.0       0.0
 2 N  s               0.0       0.0      99.7       0.0       0.0       0.0
[...]
 8 C  dxy             0.1       0.0       0.0       0.0       0.4
 9 H  s               0.5       0.8       0.0       4.3       0.0
 9 H  pz              1.2       0.7       0.1       7.9       0.1
 9 H  px              0.9       2.4       0.1       6.3       0.0
 9 H  py              0.0       0.5       0.3       2.9       0.1
10 H  s               0.9       0.9       2.3       0.0       1.6
10 H  pz              3.1       3.3       7.1       0.1       5.5
10 H  px              0.4       0.4       1.1       0.0       0.1
10 H  py              0.0       0.0       0.1       0.1       0.1
11 H  s               1.7       0.2       2.2       0.1       0.9
11 H  px              0.4       0.0       0.4       0.1       0.5
11 H  py              6.2       0.6       7.7       0.3       2.6
12 H  s               0.2       0.1       0.3       0.0       4.8
12 H  pz              0.7       0.5       0.7       0.0      16.8
12 H  px              0.0       0.0       0.7       0.0       1.7
12 H  py              0.1       0.0       0.0       0.0       0.2
13 H  s               1.6       0.2       0.6       2.2       0.1
13 H  pz              3.3       0.2       0.9       5.2       0.1
13 H  px              1.6       0.5       0.8       2.5       0.2
13 H  py              1.6       0.2       0.4       1.1       0.0
14 H  s               0.8       1.0       0.0       1.4       0.0
14 H  pz              0.1       0.2       0.0       0.3       0.0
14 H  px              0.2       0.0       0.0       0.2       0.0
14 H  py              2.9       4.1       0.2       4.9       0.1
15 H  s               5.0       0.3       0.8       0.0       0.2
15 H  pz              0.2       0.0       0.0       0.0       0.0
15 H  px             17.0       1.0       2.4       0.1       0.7
15 H  py              3.9       0.1       0.8       0.0       0.2
16 H  s               0.4       1.8       0.0       1.6       0.0
16 H  pz              1.1       6.1       0.0       5.2       0.0
16 H  px              0.6       0.7       0.1       0.8       0.0
16 H  py              0.0       0.1       0.0       0.2       0.0
17 H  s               0.6       1.0       1.2       2.2       0.2
17 H  pz              1.4       2.0       2.2       3.2       0.3
17 H  px              0.7       0.9       1.9       3.0       0.2
17 H  py              0.4       1.3       0.8       3.0       0.1
18 H  s               0.0       5.4       0.8       0.0       0.2
18 H  px              0.1      17.2       2.5       0.0       0.7
18 H  py              0.0       5.1       0.6       0.0       0.1
19 H  s               0.5       0.2       2.7       0.0       2.0
19 H  px              0.3       0.1       0.9       0.0       0.3
19 H  py              1.3       0.5       6.1       0.0       4.0
20 H  s               0.2       0.1       2.6       0.0       2.6
20 H  pz              0.5       0.4       6.2       0.1       5.0
20 H  px              0.0       0.0       0.5       0.0       0.9
20 H  py              0.0       0.0       0.0       0.0       0.1
21 H  s               0.0       0.2       0.0       0.0       0.9
21 H  px              0.0       0.1       0.0       0.0       0.3
21 H  py              0.1       0.3       0.1       0.0       1.6


                      *****************************
                      * MAYER POPULATION ANALYSIS *
                      *****************************

  NA   - Mulliken gross atomic population
  ZA   - Total nuclear charge
  QA   - Mulliken gross atomic charge
  VA   - Mayer's total valence
  BVA  - Mayer's bonded valence
  FA   - Mayer's free valence

  ATOM       NA         ZA         QA         VA         BVA        FA
  0 O      8.4883     8.0000    -0.4883     2.0432     2.0432    -0.0000
  1 O      8.5177     8.0000    -0.5177     2.0085     2.0085    -0.0000
  2 N      7.6292     7.0000    -0.6292     2.8394     2.8394    -0.0000
  3 C      6.0470     6.0000    -0.0470     3.9263     3.9263     0.0000
  4 C      6.1852     6.0000    -0.1852     3.8741     3.8741    -0.0000
  5 C      6.0148     6.0000    -0.0148     3.8518     3.8518    -0.0000
  6 C      6.3253     6.0000    -0.3253     3.8848     3.8848    -0.0000
  7 C      6.3316     6.0000    -0.3316     3.8849     3.8849    -0.0000
  8 C      5.4225     6.0000     0.5775     3.9334     3.9334     0.0000
  9 H      0.9055     1.0000     0.0945     0.9466     0.9466     0.0000
 10 H      0.8998     1.0000     0.1002     0.9625     0.9625    -0.0000
 11 H      0.8930     1.0000     0.1070     0.9570     0.9570    -0.0000
 12 H      0.8695     1.0000     0.1305     0.9524     0.9524    -0.0000
 13 H      0.8906     1.0000     0.1094     0.9591     0.9591    -0.0000
 14 H      0.8969     1.0000     0.1031     0.9562     0.9562     0.0000
 15 H      0.8971     1.0000     0.1029     0.9561     0.9561    -0.0000
 16 H      0.8960     1.0000     0.1040     0.9582     0.9582    -0.0000
 17 H      0.8953     1.0000     0.1047     0.9681     0.9681    -0.0000
 18 H      0.8963     1.0000     0.1037     0.9557     0.9557     0.0000
 19 H      0.7292     1.0000     0.2708     0.9088     0.9088    -0.0000
 20 H      0.7379     1.0000     0.2621     0.9193     0.9193    -0.0000
 21 H      0.6313     1.0000     0.3687     0.8777     0.8777    -0.0000

  Mayer bond orders larger than 0.100000
B(  0-O ,  8-C ) :   1.1114 B(  0-O , 21-H ) :   0.8255 B(  1-O ,  8-C ) :   1.8498 
B(  2-N ,  5-C ) :   1.0019 B(  2-N , 19-H ) :   0.8977 B(  2-N , 20-H ) :   0.8954 
B(  3-C ,  4-C ) :   0.9925 B(  3-C ,  6-C ) :   1.0041 B(  3-C ,  7-C ) :   1.0078 
B(  3-C ,  9-H ) :   0.9441 B(  4-C ,  5-C ) :   0.9793 B(  4-C , 10-H ) :   0.9396 
B(  4-C , 11-H ) :   0.9427 B(  5-C ,  8-C ) :   0.9297 B(  5-C , 12-H ) :   0.9307 
B(  6-C , 13-H ) :   0.9580 B(  6-C , 14-H ) :   0.9621 B(  6-C , 15-H ) :   0.9621 
B(  7-C , 16-H ) :   0.9609 B(  7-C , 17-H ) :   0.9517 B(  7-C , 18-H ) :   0.9610 


-------
TIMINGS
-------

Total SCF time: 0 days 0 hours 0 min 30 sec 

Total time                  ....      30.145 sec
Sum of individual times     ....      28.438 sec  ( 94.3%)

SCF preparation             ....       0.463 sec  (  1.5%)
Fock matrix formation       ....      27.622 sec  ( 91.6%)
  Startup                   ....       0.005 sec  (  0.0% of F)
  Split-RI-J                ....       1.773 sec  (  6.4% of F)
  Chain of spheres X        ....      21.465 sec  ( 77.7% of F)
  XC integration            ....       3.774 sec  ( 13.7% of F)
    XC Preparation          ....       0.000 sec  (  0.0% of XC)
    Basis function eval.    ....       1.488 sec  ( 39.4% of XC)
    Density eval.           ....       0.833 sec  ( 22.1% of XC)
    XC-Functional eval.     ....       0.219 sec  (  5.8% of XC)
    XC-Potential eval.      ....       1.020 sec  ( 27.0% of XC)
  CPCM terms                ....       2.212 sec  (  8.0% of F)
Diagonalization             ....       0.000 sec  (  0.0%)
Density matrix formation    ....       0.015 sec  (  0.1%)
Total Energy calculation    ....       0.009 sec  (  0.0%)
Population analysis         ....       0.191 sec  (  0.6%)
Orbital Transformation      ....       0.021 sec  (  0.1%)
Orbital Orthonormalization  ....       0.000 sec  (  0.0%)
DIIS solution               ....       0.088 sec  (  0.3%)
  MO trafo                  ....       0.010 sec  ( 11.7 % of DIIS)
  Orb grad                  ....       0.000 sec  (  0.0 % of DIIS)
  Energy W gradient         ....       0.000 sec  (  0.0 % of DIIS)
  DIIS error                ....       0.017 sec  ( 19.1 % of DIIS)
  DIIS work                 ....       0.048 sec  ( 54.2 % of DIIS)
  Form Q                    ....       0.000 sec  (  0.0 % of DIIS)
  Form QpQm                 ....       0.000 sec  (  0.0 % of DIIS)
  Exp/Cayley                ....       0.000 sec  (  0.0 % of DIIS)
  Orb update                ....       0.000 sec  (  0.0 % of DIIS)
  Wake-sleep                ....       0.003 sec  (  3.6 % of DIIS)
SOSCF solution              ....       0.028 sec  (  0.1%)
  MO trafo                  ....       0.014 sec  ( 49.8 % of SOSCF)
  Orb grad                  ....       0.001 sec  (  2.9 % of SOSCF)
  Rot update                ....       0.001 sec  (  4.6 % of SOSCF)
  Step                      ....       0.010 sec  ( 36.0 % of SOSCF)
Finished LeanSCF after  30.2 sec

Maximum memory used throughout the entire LEANSCF-calculation: 30.0 MB


-------------------------------------------------------------------------------
                          DFT DISPERSION CORRECTION                            
                                                                               
                              DFTD3 V3.1  Rev 1                                
                          USING Becke-Johnson damping                          
-------------------------------------------------------------------------------
The B3LYP functional is recognized
Active option DFTDOPT                   ...         4   

molecular C6(AA) [au] = 3574.580511 


            DFT-D V3
 parameters
 s6 scaling factor         :     1.0000 
 a1 scaling factor         :     0.3981 
 s8 scaling factor         :     1.9889 
 a2 scaling factor         :     4.4211 
 ad hoc parameters k1-k3   :    16.0000     1.3333    -4.0000 

 Edisp/kcal,au: -21.735821817857  -0.034638233202 
 E6   /kcal   : -10.719075923 
 E8   /kcal   : -11.016745895 
 % E8         :  50.684745152 

-------------------------   ----------------
Dispersion correction           -0.034638233
-------------------------   ----------------


-------------------------   --------------------
FINAL SINGLE POINT ENERGY      -441.475779320863
-------------------------   --------------------

                                *** OPTIMIZATION RUN DONE ***



           ************************************************************
           *        Program running with 2 parallel MPI-processes     *
           *              working on a common directory               *
           ************************************************************

------------------------------------------------------------------------------
                              ORCA PROPERTY CALCULATIONS
------------------------------------------------------------------------------

GBWName                                 ... /kaggle/working/Leu-1/Leu_InterFrag.gbw
Number of atoms                         ...     22
Number of basis functions               ...    191
Max core memory                         ...   3000 MB

Electric properties:
Dipole moment                           ... YES
Quadrupole moment                       ...  NO
Static polarizability (Dipole/Dipole)   ...  NO
Static polarizability (Dipole/Quad.)    ...  NO
Static polarizability (Quad./Quad.)     ...  NO
Static polarizability (Velocity)        ...  NO
Static hyperpolarizability              ...  NO

Atomic electric properties:
Dipole moment                           ...  NO
Quadrupole moment                       ...  NO
Static polarizability                   ...  NO

Choice of electric origin               ... Center of mass
Position of electric origin             ...     0.123994    -0.023896     0.053395

General magnetic properties:
Magnetizability                         ...  NO

EPR properties:
g-Tensor (aka g-matrix)                 ...  NO
Zero-Field splitting spin-orbit         ...  NO
Zero-field splitting spin-spin          ...  NO
Hyperfine couplings                     ...  NO (   0 nuclei)
Quadrupole couplings                    ...  NO (   0 nuclei)
Contact density                         ...  NO (   0 nuclei)

NMR properties:
Chemical shifts                         ...  NO (   0 nuclei)
Spin-rotation constants                 ...  NO (   0 nuclei)
Spin-spin couplings                     ...  NO (   0 nuclei,    0 pairs)

Choice of magnetic origin               ... GIAO
Position of magnetic origin             ...     0.000000     0.000000     0.000000

Properties with geometric perturbations:
SCF Hessian                             ...  NO
IR spectrum                             ...  NO
VCD spectrum                            ...  NO
X-ray spectroscopy properties:
SCF XES/XAS/RIXS spectra                ...  NO

SCF SOC stabilization energy            ...  NO
Diagonal Born-Oppenheimer correction    ...  NO

-------------
DIPOLE MOMENT
-------------

Method             : SCF
Type of density    : Electron Density
Multiplicity       :   1
Irrep              :   0
Energy             :  -441.4411410876601849 Eh
Basis              : AO
                                X                 Y                 Z
Electronic contribution:      9.719651986      -2.404857524       0.684438749
Nuclear contribution   :    -10.657620148       2.716436597      -0.415025502
                        -----------------------------------------
Total Dipole Moment    :     -0.937968162       0.311579073       0.269413248
                        -----------------------------------------
Magnitude (a.u.)       :      1.024426322
Magnitude (Debye)      :      2.603884777



--------------------
Rotational spectrum 
--------------------
 
Rotational constants in cm-1:             0.067810             0.040923             0.034169 
Rotational constants in MHz :          2032.885096          1226.845360          1024.371946 

Dipole components along the rotational axes: 
x,y,z [a.u.] :     0.928236     0.315618     0.297005 
x,y,z [Debye]:     2.359389     0.802237     0.754926 

 

Dipole moment calculation done in   0.0 sec 

Maximum memory used throughout the entire PROP-calculation: 11.1 MB

--------------------------------
SUGGESTED CITATIONS FOR THIS RUN
--------------------------------

Below you find a list of papers that are relevant to this ORCA run
We neither can nor want to force you to cite these papers, but we appreciate if you do
You receive ORCA, which is the product of decades of hard work by many enthusiastic individuals, for free
The only thing we kindly ask in return is that you cite our papers,
We deeply appreciate it, if you show your appreciation for ORCA by not just citing the generic ORCA reference.

Please note that relegating all ORCA citations to the supporting information does *not* help us.
SI sections are not indexed - citations you put there will not count into any citation statistics
But we need these citations in order to attract the funding resources that allow us to do what we are doing

Therefore, if you are a happy ORCA user, please consider citing a few of the papers listed below in the main body of your paper

In addition to the list printed below, the program has created the file /kaggle/working/Leu-1/Leu_InterFrag.bibtex that contains the list in bibtex format
You can import this file easily into all common literature databanks and citation aid programs

It goes without saying that in many instances, there are alternative algorithms to achieve similar
results as the ones you have gotten from ORCA. It is, of course, also the case that in some instances
ORCA just re-implements algorithms worked out by others. We are fully aware of that and we are also
fully appreciative of our colleagues work. Hence this citation list should not be read as indicating
that the listed papers, which are focused on our own work, are the only ones worth citing. It simply
meant to make it easier for users to cite ORCA specific papers. It is not a substitute for doing your
own literature research and citing the relevant literature in a scientifically appropriate manner.

List of essential papers. We consider these as the minimum necessary citations

  1. Neese, F.
     Software update: the ORCA program system, version 6.0
     WIRES Comput. Molec. Sci. 2025 15(1), e70019
     doi.org/10.1002/wcms.70019

List of papers to cite with high priority. The work reported in these papers was absolutely
necessary for this run to complete.
Our perspective: the developers of density functionals and basis sets usually get cited in chemistry papers
Good! But without the algorithms to do something with them, the functionals or basis sets would not do anything.
Hence, in our opinion, the algorithm design and method developments papers are equally worthy of getting cited

  1. Neese, F.
     An improvement of the resolution of the identity approximation for the formation of the Coulomb matrix
     J. Comp. Chem. 2003 24(14), 1740-1747
     doi.org/10.1002/jcc.10318
  2. Neese, F.; Wennmohs, F.; Hansen, A.; Becker, U.
     Efficient, approximate and parallel Hartree-Fock and hybrid DFT calculations. A 'chain-of-spheres' algorithm for the Hartree-Fock exchange
     Chem. Phys. 2009 356(1-3), 98-109
     doi.org/10.1016/j.chemphys.2008.10.036
  3. Grimme, S.; Antony, J.; Ehrlich, S.; Krieg, H.
     A consistent and accurate ab initio parametrization of density functional dispersion correction (DFT-D) for the 94 elements H-Pu
     J. Chem. Phys. 2010 132 , 154104
     doi.org/10.1063/1.3382344
  4. Grimme, S.; Ehrlich, S.; Goerigk, L.
     Effect of the damping function in dispersion corrected density functional theory
     J. Comput. Chem. 2011 32(7), 1456-1465
     doi.org/10.1002/jcc.21759
  5. Garcia-Rates, M.; Neese, F.
     Effect of the Solute Cavity on the Solvation Energy and its Derivatives within the Framework of the Gaussian Charge Scheme
     J. Comput. Chem. 2020 41 , 922-939
     doi.org/10.1002/jcc.26139
  6. Helmich-Paris, B.; de Souza, B.; Neese, F.; Izsák, R.
     An improved chain of spheres for exchange algorithm
     J. Chem. Phys. 2021 155(10), 104109
     doi.org/10.1063/5.0058766
  7. Neese, F.
     The SHARK Integral Generation and Digestion System
     J. Comp. Chem. 2022 44(3), 381
     doi.org/10.1002/jcc.26942

List of suggested additional citations. These are papers that are important in the 'surrounding' of 
of this run, or papers that preceded the highly important papers. If you like your results we are grateful for a citation.

  1. Izsak, R.; Neese, F.
     An overlap fitted chain of spheres exchange method
     J. Chem. Phys. 2011 135 , 144105
     doi.org/10.1063/1.3646921
  2. Izsak, R.; Hansen, A.; Neese, F.
     The resolution of identity and chain of spheres approximations for the LPNO-CCSD singles Fock term
     Molec. Phys. 2012 110 , 2413-2417
     doi.org/10.1080/00268976.2012.687466
  3. Neese, F.
     The ORCA program system
     WIRES Comput. Molec. Sci. 2012 2(1), 73-78
     doi.org/10.1002/wcms.81
  4. Izsak, R.; Neese, F.; Klopper, W.
     Robust fitting techniques in the chain of spheres approximation to the Fock exchange: The role of the complementary space
     J. Chem. Phys. 2013 139 , 
     doi.org/10.1063/1.4819264
  5. Neese, F.
     Software update: the ORCA program system, version 4.0
     WIRES Comput. Molec. Sci. 2018 8(1), 1-6
     doi.org/10.1002/wcms.1327
  6. Neese, F.; Wennmohs, F.; Becker, U.; Riplinger, C.
     The ORCA quantum chemistry program package
     J. Chem. Phys. 2020 152(22), 224108
     doi.org/10.1063/5.0004608
  7. Neese, F.
     Software update: The ORCA program system—Version 5.0
     WIRES Comput. Molec. Sci. 2022 12(1), e1606
     doi.org/10.1002/wcms.1606

List of optional additional citations

  1. Neese, F.
     Approximate second-order SCF convergence for spin unrestricted wavefunctions
     Chem. Phys. Lett. 2000 325(1-3), 93-98
     doi.org/10.1016/s0009-2614(00)00662-x

Timings for individual modules:

Sum of individual times          ...      465.102 sec (=   7.752 min)
Startup calculation              ...       18.249 sec (=   0.304 min)   3.9 %
SCF iterations                   ...      292.007 sec (=   4.867 min)  62.8 %
Property calculations            ...        0.411 sec (=   0.007 min)   0.1 %
SCF Gradient evaluation          ...      154.350 sec (=   2.573 min)  33.2 %
Geometry relaxation              ...        0.084 sec (=   0.001 min)   0.0 %
                             ****ORCA TERMINATED NORMALLY****
TOTAL RUN TIME: 0 days 0 hours 7 minutes 48 seconds 765 msec
