
                                 *****************
                                 * O   R   C   A *
                                 *****************

                                            #,                                       
                                            ###                                      
                                            ####                                     
                                            #####                                    
                                            ######                                   
                                           ########,                                 
                                     ,,################,,,,,                         
                               ,,#################################,,                 
                          ,,##########################################,,             
                       ,#########################################, ''#####,          
                    ,#############################################,,   '####,        
                  ,##################################################,,,,####,       
                ,###########''''           ''''###############################       
              ,#####''   ,,,,##########,,,,          '''####'''          '####       
            ,##' ,,,,###########################,,,                        '##       
           ' ,,###''''                  '''############,,,                           
         ,,##''                                '''############,,,,        ,,,,,,###''
      ,#''                                            '''#######################'''  
     '                                                          ''''####''''         
             ,#######,   #######,   ,#######,      ##                                
            ,#'     '#,  ##    ##  ,#'     '#,    #''#        ,####,    ,#,          
            ##       ##  ##   ,#'  ##            #'  '#       #'       ,# #          
            ##       ##  #######   ##           ,######,      #####,      #          
            '#,     ,#'  ##    ##  '#,     ,#' ,#      #,     #,   #      #          
             '#######'   ##     ##  '#######'  #'      '#     '####' #    #          



                #########################################################
                #                        -***-                          #
                #          Department of theory and spectroscopy        #
                #                                                       #
                #                      Frank Neese                      #
                #                                                       #
                #     Directorship, Architecture, Infrastructure        #
                #                    SHARK, DRIVERS                     #
                #        Core code/Algorithms in most modules           #
                #                                                       #
                #        Max Planck Institute fuer Kohlenforschung      #
                #                Kaiser Wilhelm Platz 1                 #
                #                 D-45470 Muelheim/Ruhr                 #
                #                      Germany                          #
                #                                                       #
                #                  All rights reserved                  #
                #                        -***-                          #
                #########################################################


                         Program Version 6.1.1  -  RELEASE   -
                                (GIT: $487d211c$)
                          ($2025-11-21 10:33:24 +0100$)
                                                                         
                                  - NO-DMRG VERSION -                    
                                                                         


 With contributions from (in alphabetic order):
[Max-Planck-Institut fuer Kohlenforschung]                               
  Daniel Aravena         : Magnetic Suceptibility                        
  Michael Atanasov       : Ab Initio Ligand Field Theory (pilot matlab implementation)
  Alexander A. Auer      : GIAO ZORA, VPT2 properties, NMR spectrum      
  Ute Becker             : All parallelization in ORCA, NUMFREQ, NUMCALC 
  Giovanni Bistoni       : ED, misc. LED, open-shell LED, HFLD           
  Dmytro Bykov           : pre 5.0 version of the SCF Hessian            
  Marcos Casanova-Páez   : Triplet and SCS-CIS(D). UHF-(DLPNO)-IP/EA/STEOM-CCSD. UHF-CVS-IP/STEOM-CCSD   
  Vijay G. Chilkuri      : MRCI spin determinant printing, contributions to CSF-ICE 
  Pauline Colinet        : FMM embedding                                 
  Dipayan Datta          : RHF DLPNO-CCSD density                        
  Achintya Kumar Dutta   : EOM-CC, STEOM-CC                              
  Nicolas Foglia         : Exact transition moments, OPA infrastructure, MCD improvements    
  Dmitry Ganyushin       : Spin-Orbit,Spin-Spin,Magnetic field MRCI      
  Miquel Garcia-Rates    : C-PCM and meta-GGA Hessian, CCSD/C-PCM, Gaussian charge scheme 
  Tiago L. C. Gouveia    : GS-ROHF, GS-ROCIS                             
  Yang Guo               : DLPNO-NEVPT2, F12-NEVPT2, CIM, IAO-localization        
  Andreas Hansen         : Spin unrestricted coupled pair/coupled cluster methods 
  Ingolf Harden          : AUTO-CI MPn and infrastructure                
  Benjamin Helmich-Paris : MC-RPA, TRAH-(SCF,CASSCF), AVAS, COSX integrals, SCF dyn. polar., MC-PDFT, srDFT 
  Lee Huntington         : MR-EOM, pCC                                   
  Robert Izsak           : Overlap fitted RIJCOSX, COSX-SCS-MP3, EOM     
  Riya Kayal             : Wick's Theorem for AUTO-CI, AUTO-CI UHF-CCSDT 
  Emily Kempfer          : AUTO-CI RHF CISDT and CCSDT, approximate NEVPT4
  Christian Kollmar      : KDIIS, OOCD, Brueckner-CCSD(T), CCSD density, CASPT2, CASPT2-K, improved NEVPT2 
  Axel Koslowski         : Symmetry handling                             
  Simone Kossmann        : meta-GGA functionals, TD-DFT gradient, OOMP2, (MP2 Hessian; deprecated post 5.0) 
  Lucas Lang             : DCDCAS, Hyperfine gauge corrections, ICE-SOC+SSC
  Marvin Lechner         : AUTO-CI (C++ implementation), FIC-MRCC        
  Spencer Leger          : CASSCF response                               
  Dagmar Lenk            : GEPOL surface, SMD, ORCA-2-JSON               
  Dimitrios Liakos       : Extrapolation schemes; Compound Job, Property file
  Dimitrios Manganas     : Further ROCIS development; embedding schemes. LFT, Crystal Embedding 
  Dimitrios Pantazis     : SARC Basis sets                               
  Anastasios Papadopoulos: AUTO-CI, single reference methods and gradients 
  Taras Petrenko         : pre 6.0 DFT Hessian and TD-DFT gradient,  ECA, NRVS 
  Petra Pikulova         : Analytic Raman intensities                    
  Peter Pinski           : DLPNO-MP2, DLPNO-MP2 Gradient                 
  Shashank Vittal Rao    : ES-AILFT, MagRelax                            
  Christoph Reimann      : Effective Core Potentials                     
  Marius Retegan         : Local ZFS, SOC                                
  Christoph Riplinger    : Optimizer, TS searches, QM/MM, DLPNO-CCSD(T), (RO)-DLPNO pert. Triples 
  Michael Roemelt        : Original ROCIS implementation, recursive CI coupling coefficients
  Masaaki Saitow         : Open-shell DLPNO-CCSD energy and density      
  Barbara Sandhoefer     : DKH picture change effects                    
  Yorick L. A. Schmerwitz: GMF and freeze-and-release deltaSCF, NEB S-IDPP initial path                    
  Kantharuban Sivalingam : CASSCF convergence/infrastructure, NEVPT2, NEVPT3, NEVPT4(SD), FIC-MRCI and CEPA variants
  Bernardo de Souza      : ESD, SOC TD-DFT                               
  Georgi L. Stoychev     : AutoAux, RI-MP2 NMR, DLPNO-MP2 response, X2C  
  Van Anh Tran           : RI-MP2 g-tensors                              
  Willem Van den Heuvel  : Paramagnetic NMR                              
  Zikuan Wang            : NOTCH, Electric field optimization            
  Frank Wennmohs         : Technical directorship and infrastructure     
  Hang Xu                : AUTO-CI-Response properties                   
                                                                         
[FACCTs GmbH]                                                            
  Markus Bursch, Nicolas Foglia, Miquel Garcia-Rates, Ingolf Harden, Hagen Neugebauer, Anastasios Papadopoulos, 
  Christoph Riplinger, Bernardo de Souza, Georgi L. Stoychev                                                    
                                                                 
  APM, various basis sets, CI-OPT, improved COSX, DLPNO-Multilevel,           
  DOCKER, DRACO, updates on ESD, Fragmentator, GOAT, IRC, LR-CPCM, L-BFGS, MBIS, meta-GGA TD-DFT gradient, ML-optimized integration grids, 
  MM, NACMEs, nearIR, NEB, NEB-TS, NL-DFT gradient (VV10), 2- and 3-layer-ONIOM, interface openCOSMO-RS, QMMM,   
  Crystal-QMMM, RESP, rigid body optimization, SF, symmetry and pop. for TD-DFT, various functionals, SOLVATOR                                   
                                                                         
[Other institutions]                                                     
  V. Asgeirsson          : NEB                                           
  Christoph Bannwarth    : sTDA-DFT, sTD-DFT, PBEh-3c, B97-3c, D3        
  Giovanni Bistoni       : ETS/NOCV, ADLD/ADEX, COVALED                  
  Martin Brehm           : Molecular dynamics                            
  Ronald Cardenas        : ETS/NOCV                                      
  Martina Colucci        : COVALED                                       
  Sebastian Ehlert       : rSCAN, r2SCAN, r2SCAN-3c, D4, dhf basis sets  
  Marvin Friede          : D4 for Fr, Ra, Ac-Lr                          
  Lars Goerigk           : TD-DFT with DH, B97 family of functionals     
  Stefan Grimme          : VdW corrections, initial TS optimization, DFT functionals, gCP, sTDA/sTD-DF 
  Waldemar Hujo          : DFT-NL                                        
  H. Jonsson             : NEB                                           
  Holger Kruse           : gCP                                           
  Marcel Mueller         : wB97X-3c, vDZP basis set                      
  Hagen Neugebauer       : wr2SCAN, Native XTB                           
  Gianluca Regni         : ADLD/ADEX                                     
  Tobias Risthaus        : pre 6.0 range-separated hybrid DFT and stability analysis
  Lukas Wittmann         : regularized MP2, r2SCAN double-hybrids, wr2SCAN        
                                                                         
We gratefully acknowledge several colleagues who have allowed us to      
interface, adapt or use parts of their codes:                            
  Ed Valeev, F. Pavosevic, A. Kumar             : LibInt (2-el integral package), F12 methods 
  Garnet Chan, S. Sharma, J. Yang, R. Olivares  : DMRG                   
  Ulf Ekstrom                                   : XCFun DFT Library      
  Mihaly Kallay                                 : mrcc  (arbitrary order and MRCC methods)
  Frank Weinhold                                : gennbo (NPA and NBO analysis)           
  Simon Mueller                                 : openCOSMO-RS                            
  Christopher J. Cramer and Donald G. Truhlar   : smd solvation model                     
  S Lehtola, MJT Oliveira, MAL Marques          : LibXC Library                           
  Liviu Ungur et al                             : ANISO software                          


 Your calculation uses the libint2 library for the computation of 2-el integrals
 For citations please refer to: http://libint.valeyev.net

 Your ORCA version has been built with support for libXC version: 7.0.0
 For citations please refer to: https://libxc.gitlab.io

 This ORCA versions uses:
   CBLAS   interface :  Fast vector & matrix operations
   LAPACKE interface :  Fast linear algebra routines
   SCALAPACK package :  Parallel linear algebra routines
   Shared memory     :  Shared parallel matrices
   BLAS/LAPACK       :  OpenBLAS 0.3.29  USE64BITINT DYNAMIC_ARCH NO_AFFINITY SkylakeX SINGLE_THREADED
        Core in use  :  SkylakeX
   Copyright (c) 2011-2014, The OpenBLAS Project


  ***********************************
  * Starting time: Sun Mar 22 19:07:37 2026
  * Host name:     d9b0b1762210
  * Process ID:    497
  * Working dir.:  /kaggle/working
  ***********************************

NOTE: MaxCore=3000 MB was set to SCF,MP2,MDCI,CIPSI,MRCI,RASCI and CIS
      => If you want to overwrite this, your respective input block should be placed after the MaxCore statement
Your calculation utilizes the atom-pairwise dispersion correction
with the Becke-Johnson damping scheme (D3BJ)


Warning: RI is on but no J-basis has been assigned. Assigning Def2/J (nothing to worry about!)
================================================================================

----- Orbital basis set information -----
Your calculation utilizes the basis: 6-31G(d,p)
   H-He, Li-Ne : W. J. Hehre, R. Ditchfield and J.A. Pople, J. Chem. Phys. 56, 2257 (1972).
                 Note: He and Ne are unpublished basis sets taken from the Gaussian program.
                 Note: Li and B from J. D. Dill and J. A. Pople, J. Chem. Phys. 62, 2921 (1975).
   Na - Ar     : M. M. Francl, W. J. Pietro, W. J. Hehre, J. S. Binkley, M. S. Gordon, 
                 D. J. DeFrees and J. A. Pople, J. Chem. Phys. 77, 3654 (1982).
   K - Zn      : V. A. Rassolov, J. A. Pople, M. A. Ratner, and T. L. Windus, J. Chem. Phys. 109, 1223 (1998).

----- AuxJ basis set information -----
Your calculation utilizes the auxiliary basis: def2/J
   H-Rn: F. Weigend, Phys. Chem. Chem. Phys. 8, 1057 (2006).
   Fr-Lr: K. Eichkorn, F. Weigend, O. Treutler, R. Ahlrichs; Theor. Chem. Acc. 97, 119 (1997).

================================================================================
                                        WARNINGS
                       Please study these warnings very carefully!
================================================================================


================================================================================
                                       INPUT FILE
================================================================================
NAME = /kaggle/working/Leu-2/Leu_InterFrag.inp
|  1> 
|  2> !RKS B3LYP 6-31G(d,p) TightSCF D3BJ
|  3> 
|  4> %pal nprocs 2 end
|  5> %maxcore 3000
|  6> 
|  7> %elprop
|  8>   Polar 1      # polarizability via CP-SCF
|  9> end
| 10> 
| 11> %output
| 12>   PrintLevel Normal
| 13>   Print[ P_OrbEn ] 2
| 14> end
| 15> 
| 16> *xyz 0 1
| 17>   O      1.207084   -1.279810    1.290307
| 18>   O      1.794017   -0.942590   -0.859970
| 19>   N      1.739850    1.797167    0.073435
| 20>   C     -1.807156    0.165792   -0.417074
| 21>   C     -0.541253    1.015814   -0.655454
| 22>   C      0.646278    0.834575    0.310262
| 23>   C     -2.366558    0.342215    1.000686
| 24>   C     -1.623875   -1.322231   -0.748649
| 25>   C      1.269020   -0.541002    0.166769
| 26>   H     -2.555439    0.560734   -1.117927
| 27>   H     -0.172109    0.845802   -1.675082
| 28>   H     -0.819305    2.075175   -0.590589
| 29>   H      0.311491    0.953809    1.341898
| 30>   H     -1.702702   -0.102917    1.750402
| 31>   H     -2.496104    1.401215    1.251514
| 32>   H     -3.342020   -0.147243    1.095880
| 33>   H     -1.180325   -1.463428   -1.740169
| 34>   H     -0.985882   -1.827293   -0.016392
| 35>   H     -2.591650   -1.835616   -0.736368
| 36>   H      1.338599    2.730639    0.155047
| 37>   H      2.010735    1.707684   -0.906324
| 38>   H      1.622704   -2.143491    1.106897
| 39> 
| 40> *
| 41> 
| 42>                          ****END OF INPUT****
================================================================================

                       ****************************
                       * Single Point Calculation *
                       ****************************

---------------------------------
CARTESIAN COORDINATES (ANGSTROEM)
---------------------------------
  O      1.207084   -1.279810    1.290307
  O      1.794017   -0.942590   -0.859970
  N      1.739850    1.797167    0.073435
  C     -1.807156    0.165792   -0.417074
  C     -0.541253    1.015814   -0.655454
  C      0.646278    0.834575    0.310262
  C     -2.366558    0.342215    1.000686
  C     -1.623875   -1.322231   -0.748649
  C      1.269020   -0.541002    0.166769
  H     -2.555439    0.560734   -1.117927
  H     -0.172109    0.845802   -1.675082
  H     -0.819305    2.075175   -0.590589
  H      0.311491    0.953809    1.341898
  H     -1.702702   -0.102917    1.750402
  H     -2.496104    1.401215    1.251514
  H     -3.342020   -0.147243    1.095880
  H     -1.180325   -1.463428   -1.740169
  H     -0.985882   -1.827293   -0.016392
  H     -2.591650   -1.835616   -0.736368
  H      1.338599    2.730639    0.155047
  H      2.010735    1.707684   -0.906324
  H      1.622704   -2.143491    1.106897

----------------------------
CARTESIAN COORDINATES (A.U.)
----------------------------
  NO LB      ZA    FRAG     MASS         X           Y           Z
   0 O     8.0000    0    15.999    2.281058   -2.418490    2.438327
   1 O     8.0000    0    15.999    3.390201   -1.781237   -1.625108
   2 N     7.0000    0    14.007    3.287840    3.396153    0.138772
   3 C     6.0000    0    12.011   -3.415030    0.313301   -0.788156
   4 C     6.0000    0    12.011   -1.022820    1.919610   -1.238629
   5 C     6.0000    0    12.011    1.221288    1.577118    0.586310
   6 C     6.0000    0    12.011   -4.472147    0.646693    1.891022
   7 C     6.0000    0    12.011   -3.068679   -2.498654   -1.414742
   8 C     6.0000    0    12.011    2.398100   -1.022346    0.315148
   9 H     1.0000    0     1.008   -4.829080    1.059634   -2.112576
  10 H     1.0000    0     1.008   -0.325239    1.598334   -3.165446
  11 H     1.0000    0     1.008   -1.548262    3.921512   -1.116051
  12 H     1.0000    0     1.008    0.588633    1.802438    2.535820
  13 H     1.0000    0     1.008   -3.217640   -0.194485    3.307780
  14 H     1.0000    0     1.008   -4.716953    2.647913    2.365019
  15 H     1.0000    0     1.008   -6.315503   -0.278249    2.070913
  16 H     1.0000    0     1.008   -2.230491   -2.765478   -3.288443
  17 H     1.0000    0     1.008   -1.863047   -3.453083   -0.030976
  18 H     1.0000    0     1.008   -4.897509   -3.468812   -1.391534
  19 H     1.0000    0     1.008    2.529586    5.160160    0.292996
  20 H     1.0000    0     1.008    3.799738    3.227055   -1.712704
  21 H     1.0000    0     1.008    3.066466   -4.050611    2.091732

--------------------------------
INTERNAL COORDINATES (ANGSTROEM)
--------------------------------
 O      0   0   0     0.000000000000     0.00000000     0.00000000
 O      1   0   0     2.254306734146     0.00000000     0.00000000
 N      2   1   0     2.894900236098    80.16271258     0.00000000
 C      1   2   3     3.753739175697    73.59664584    72.69934382
 C      4   1   2     1.543331730476    67.89605364   308.19217812
 C      3   2   1     1.475998003243    56.52212642   310.86877407
 C      4   1   2     1.534307364948    85.22481936   191.84415698
 C      4   1   2     1.535495475120    68.23309145    77.23742626
 C      2   1   3     1.221101038356    30.14337947   333.46330750
 H      4   1   2     1.098681736929   167.28682995     7.21865202
 H      5   4   1     1.097639572567   109.51325197   104.49010737
 H      5   4   1     1.097162755133   108.34818121   220.67993810
 H      6   3   2     1.091133318445   107.92460768   137.35742297
 H      7   4   1     1.095865578808   111.38249154   354.52034760
 H      7   4   1     1.095982596440   111.44929470   115.09482774
 H      7   4   1     1.095516839142   110.70526277   235.13651711
 H      8   4   1     1.095347025243   111.63712310   258.39475467
 H      8   4   1     1.094679407837   111.85341682    19.62330933
 H      8   4   1     1.095583603296   110.25804835   138.46342287
 H      3   2   1     1.019329612210   154.14142477   254.91021442
 H      3   2   1     1.020447739277    66.57602624   178.79789314
 H      1   2   3     0.975870935248    80.92270964   205.35710442

---------------------------
INTERNAL COORDINATES (A.U.)
---------------------------
 O      0   0   0     0.000000000000     0.00000000     0.00000000
 O      1   0   0     4.260022349391     0.00000000     0.00000000
 N      2   1   0     5.470568631250    80.16271258     0.00000000
 C      1   2   3     7.093539020239    73.59664584    72.69934382
 C      4   1   2     2.916474304390    67.89605364   308.19217812
 C      3   2   1     2.789232000344    56.52212642   310.86877407
 C      4   1   2     2.899420725010    85.22481936   191.84415698
 C      4   1   2     2.901665927853    68.23309145    77.23742626
 C      2   1   3     2.307546544340    30.14337947   333.46330750
 H      4   1   2     2.076207591137   167.28682995     7.21865202
 H      5   4   1     2.074238185905   109.51325197   104.49010737
 H      5   4   1     2.073337131539   108.34818121   220.67993810
 H      6   3   2     2.061943147458   107.92460768   137.35742297
 H      7   4   1     2.070885823538   111.38249154   354.52034760
 H      7   4   1     2.071106954816   111.44929470   115.09482774
 H      7   4   1     2.070226801078   110.70526277   235.13651711
 H      8   4   1     2.069905899315   111.63712310   258.39475467
 H      8   4   1     2.068644285255   111.85341682    19.62330933
 H      8   4   1     2.070352967044   110.25804835   138.46342287
 H      3   2   1     1.926253807274   154.14142477   254.91021442
 H      3   2   1     1.928366761212    66.57602624   178.79789314
 H      1   2   3     1.844128809672    80.92270964   205.35710442

---------------------
BASIS SET INFORMATION
---------------------
There are 4 groups of distinct atoms

 Group   1 Type O   : 10s4p1d contracted to 3s2p1d pattern {631/31/1}
 Group   2 Type N   : 10s4p1d contracted to 3s2p1d pattern {631/31/1}
 Group   3 Type C   : 10s4p1d contracted to 3s2p1d pattern {631/31/1}
 Group   4 Type H   : 4s1p contracted to 2s1p pattern {31/1}

Atom   0O    basis set group =>   1
Atom   1O    basis set group =>   1
Atom   2N    basis set group =>   2
Atom   3C    basis set group =>   3
Atom   4C    basis set group =>   3
Atom   5C    basis set group =>   3
Atom   6C    basis set group =>   3
Atom   7C    basis set group =>   3
Atom   8C    basis set group =>   3
Atom   9H    basis set group =>   4
Atom  10H    basis set group =>   4
Atom  11H    basis set group =>   4
Atom  12H    basis set group =>   4
Atom  13H    basis set group =>   4
Atom  14H    basis set group =>   4
Atom  15H    basis set group =>   4
Atom  16H    basis set group =>   4
Atom  17H    basis set group =>   4
Atom  18H    basis set group =>   4
Atom  19H    basis set group =>   4
Atom  20H    basis set group =>   4
Atom  21H    basis set group =>   4
---------------------------------
AUXILIARY/J BASIS SET INFORMATION
---------------------------------
There are 4 groups of distinct atoms

 Group   1 Type O   : 12s5p4d2f1g contracted to 6s4p3d1f1g pattern {711111/2111/211/2/1}
 Group   2 Type N   : 12s5p4d2f1g contracted to 6s4p3d1f1g pattern {711111/2111/211/2/1}
 Group   3 Type C   : 12s5p4d2f1g contracted to 6s4p3d1f1g pattern {711111/2111/211/2/1}
 Group   4 Type H   : 5s2p1d contracted to 3s1p1d pattern {311/2/1}

Atom   0O    basis set group =>   1
Atom   1O    basis set group =>   1
Atom   2N    basis set group =>   2
Atom   3C    basis set group =>   3
Atom   4C    basis set group =>   3
Atom   5C    basis set group =>   3
Atom   6C    basis set group =>   3
Atom   7C    basis set group =>   3
Atom   8C    basis set group =>   3
Atom   9H    basis set group =>   4
Atom  10H    basis set group =>   4
Atom  11H    basis set group =>   4
Atom  12H    basis set group =>   4
Atom  13H    basis set group =>   4
Atom  14H    basis set group =>   4
Atom  15H    basis set group =>   4
Atom  16H    basis set group =>   4
Atom  17H    basis set group =>   4
Atom  18H    basis set group =>   4
Atom  19H    basis set group =>   4
Atom  20H    basis set group =>   4
Atom  21H    basis set group =>   4


           ************************************************************
           *        Program running with 2 parallel MPI-processes     *
           *              working on a common directory               *
           ************************************************************
------------------------------------------------------------------------------
                             ORCA STARTUP CALCULATIONS
                           -- RI-GTO INTEGRALS CHOSEN --
------------------------------------------------------------------------------
------------------------------------------------------------------------------
                   ___                                                        
                  /   \      - P O W E R E D   B Y -                         
                 /     \                                                     
                 |  |  |   _    _      __       _____    __    __             
                 |  |  |  | |  | |    /  \     |  _  \  |  |  /  |          
                  \  \/   | |  | |   /    \    | | | |  |  | /  /          
                 / \  \   | |__| |  /  /\  \   | |_| |  |  |/  /          
                |  |  |   |  __  | /  /__\  \  |    /   |      \           
                |  |  |   | |  | | |   __   |  |    \   |  |\   \          
                \     /   | |  | | |  |  |  |  | |\  \  |  | \   \       
                 \___/    |_|  |_| |__|  |__|  |_| \__\ |__|  \__/        
                                                                              
                      - O R C A' S   B I G   F R I E N D -                    
                                      &                                       
                       - I N T E G R A L  F E E D E R -                       
                                                                              
 v1 FN, 2020, v2 2021, v3 2022-2024                                           
------------------------------------------------------------------------------


----------------------
SHARK INTEGRAL PACKAGE
----------------------

Number of atoms                             ...     22
Number of basis functions                   ...    191
Number of shells                            ...     93
Maximum angular momentum                    ...      2
Integral batch strategy                     ... SHARK/LIBINT Hybrid
RI-J (if used) integral strategy            ... SPLIT-RIJ (Revised 2003 algorithm where possible)
Printlevel                                  ...      1
Contraction scheme used                     ... SEGMENTED contraction
Prescreening option                         ... SCHWARTZ
   Thresh                                   ... 2.500e-11
   Tcut                                     ... 2.500e-12
   Tpresel                                  ... 2.500e-12 
Coulomb Range Separation                    ... NOT USED
Exchange Range Separation                   ... NOT USED
Multipole approximations                    ... NOT USED
Finite Nucleus Model                        ... NOT USED
CABS basis                                  ... NOT available
Auxiliary Coulomb fitting basis             ... AVAILABLE
   # of basis functions in Aux-J            ...    584
   # of shells in Aux-J                     ...    200
   Maximum angular momentum in Aux-J        ...      4
Auxiliary J/K fitting basis                 ... NOT available
Auxiliary Correlation fitting basis         ... NOT available
Auxiliary 'external' fitting basis          ... NOT available

Checking pre-screening integrals            ... done (  0.0 sec) Dimension = 93
   => SHARK Basis and OBASIS are compatible. Storing Pre-screening
Shell pair information
Shell pair cut-off parameter TPreSel        ...   2.5e-12
Total number of shell pairs                 ...      4371
Shell pairs after pre-screening             ...      4006
Total number of primitive shell pairs       ...     20328
Primitive shell pairs kept                  ...     12403
          la=0 lb=0:   1318 shell pairs
          la=1 lb=0:   1490 shell pairs
          la=1 lb=1:    447 shell pairs
          la=2 lb=0:    449 shell pairs
          la=2 lb=1:    257 shell pairs
          la=2 lb=2:     45 shell pairs

Checking whether 4 symmetric matrices of dimension 191 fit in memory
:Max Core in MB      =   3000.00
 MB in use           =      8.74
 MB left             =   2991.26
 MB needed           =      0.56
 Data fit in memory  = YES
Calculating RI/J V-Matrix + Cholesky decomp.... done (  0.0 sec)
Calculating Nuclear repulsion               ... done (  0.0 sec) ENN=    494.582673242296 Eh

Diagonalization of the overlap matrix:
Smallest eigenvalue                        ... 3.398e-03
Time for diagonalization                   ...    0.004 sec
Threshold for overlap eigenvalues          ... 1.000e-07
Number of eigenvalues below threshold      ... 0
Time for construction of square roots      ...    0.001 sec
Total time needed                          ...    0.006 sec

-------------------
DFT GRID GENERATION
-------------------

General Integration Accuracy     IntAcc      ... 4.388
Radial Grid Type                 RadialGrid  ... OptM3 with GC (2021)
Angular Grid (max. ang.)         AngularGrid ... 4 (Lebedev-302)
Angular grid pruning method      GridPruning ... 4 (adaptive)
Weight generation scheme         WeightScheme... mBecke (2022)
Basis function cutoff            BFCut       ... 1.0000e-11
Integration weight cutoff        WCut        ... 1.0000e-14
Partially contracted basis set               ... off
Rotationally invariant grid construction     ... off
Angular grids for H and He will be reduced by one unit

Total number of grid points                  ...    95534
Total number of batches                      ...     1503
Average number of points per batch           ...       63
Average number of grid points per atom       ...     4342

--------------------
COSX GRID GENERATION
--------------------

GRIDX 1
-------
General Integration Accuracy     IntAcc      ... 3.816
Radial Grid Type                 RadialGrid  ... OptM3 with GC (2021)
Angular Grid (max. ang.)         AngularGrid ... 1 (Lebedev-50)
Angular grid pruning method      GridPruning ... 4 (adaptive)
Weight generation scheme         WeightScheme... mBecke (2022)
Basis function cutoff            BFCut       ... 1.0000e-11
Integration weight cutoff        WCut        ... 1.0000e-14
Partially contracted basis set               ... on
Rotationally invariant grid construction     ... off
Angular grids for H and He will be reduced by one unit

Total number of grid points                  ...    12240
Total number of batches                      ...      110
Average number of points per batch           ...      111
Average number of grid points per atom       ...      556
UseSFitting                                  ... on

GRIDX 2
-------
General Integration Accuracy     IntAcc      ... 4.020
Radial Grid Type                 RadialGrid  ... OptM3 with GC (2021)
Angular Grid (max. ang.)         AngularGrid ... 2 (Lebedev-110)
Angular grid pruning method      GridPruning ... 4 (adaptive)
Weight generation scheme         WeightScheme... mBecke (2022)
Basis function cutoff            BFCut       ... 1.0000e-11
Integration weight cutoff        WCut        ... 1.0000e-14
Partially contracted basis set               ... on
Rotationally invariant grid construction     ... off
Angular grids for H and He will be reduced by one unit

Total number of grid points                  ...    25767
Total number of batches                      ...      213
Average number of points per batch           ...      120
Average number of grid points per atom       ...     1171
UseSFitting                                  ... on

GRIDX 3
-------
General Integration Accuracy     IntAcc      ... 4.338
Radial Grid Type                 RadialGrid  ... OptM3 with GC (2021)
Angular Grid (max. ang.)         AngularGrid ... 3 (Lebedev-194)
Angular grid pruning method      GridPruning ... 4 (adaptive)
Weight generation scheme         WeightScheme... mBecke (2022)
Basis function cutoff            BFCut       ... 1.0000e-11
Integration weight cutoff        WCut        ... 1.0000e-14
Partially contracted basis set               ... on
Rotationally invariant grid construction     ... off
Angular grids for H and He will be reduced by one unit

Total number of grid points                  ...    56226
Total number of batches                      ...      450
Average number of points per batch           ...      124
Average number of grid points per atom       ...     2556
UseSFitting                                  ... on
Grids setup in   1.7 sec
Initializing property integral containers    ... done (  0.0 sec)

SHARK setup successfully completed in   1.8 seconds

Maximum memory used throughout the entire STARTUP-calculation: 32.8 MB


           ************************************************************
           *        Program running with 2 parallel MPI-processes     *
           *              working on a common directory               *
           ************************************************************
-------------------------------------------------------------------------------
                                 ORCA GUESS
                   Start orbitals & Density for SCF / CASSCF
-------------------------------------------------------------------------------

------------
SCF SETTINGS
------------
Hamiltonian:
 Density Functional     Method          .... DFT(GTOs)
 Exchange Functional    Exchange        .... B88
   X-Alpha parameter    XAlpha          ....  0.666667
   Becke's b parameter  XBeta           ....  0.004200
 Correlation Functional Correlation     .... LYP
 LDA part of GGA corr.  LDAOpt          .... VWN-5
 Gradients option       PostSCFGGA      .... off
 Hybrid DFT is turned on
   Fraction HF Exchange ScalHFX         ....  0.200000
   Scaling of DF-GGA-X  ScalDFX         ....  0.720000
   Scaling of DF-GGA-C  ScalDFC         ....  0.810000
   Scaling of DF-LDA-C  ScalLDAC        ....  1.000000
   Perturbative correction              ....  0.000000
   NL short-range parameter             ....  4.800000
 RI-approximation to the Coulomb term is turned on
   Number of AuxJ basis functions       .... 584
   RIJ-COSX (HFX calculated with COS-X)).... on


General Settings:
 Integral files         IntName         .... /kaggle/working/Leu-2/Leu_InterFrag
 Hartree-Fock type      HFTyp           .... RHF
 Total Charge           Charge          ....    0
 Multiplicity           Mult            ....    1
 Number of Electrons    NEL             ....   72
 Basis Dimension        Dim             ....  191
 Nuclear Repulsion      ENuc            ....    494.5826732423 Eh

Convergence Acceleration:
 AO-DIIS                CNVDIIS         .... on
   Start iteration      DIISMaxIt       ....    12
   Startup error        DIISStart       ....  0.200000
   # of expansion vecs  DIISMaxEq       ....     5
   Bias factor          DIISBfac        ....   1.050
   Max. coefficient     DIISMaxC        ....  10.000
 MO-DIIS                CNVKDIIS        .... off
 Trust-Rad. Augm. Hess. CNVTRAH         .... auto
   Auto Start mean grad. ratio tolernc. ....  1.125000
   Auto Start start iteration           ....    50
   Auto Start num. interpolation iter.  ....    10
   Max. Number of Micro iterations      ....    24
   Max. Number of Macro iterations      .... Maxiter - #DIIS iter
   Number of Davidson start vectors     ....     2
   Converg. threshold    (grad. norm)   ....   1.000e-05
   Grad. Scal. Fac. for Micro threshold ....   0.100
   Minimum threshold for Micro iter.    ....   1.000e-02
   NR start threshold (gradient norm)   ....   1.000e-04
   Initial trust radius                 ....   0.400
   Minimum AH scaling param. (alpha)    ....   1.000
   Maximum AH scaling param. (alpha)    .... 1000.000
   Quad. conv. algorithm                .... NR
   White noise on init. David. guess    .... on
   Maximum white noise                  ....   0.010
   Pseudo random numbers                .... off
   Inactive MOs                         .... canonical
   Orbital update algorithm             .... Taylor
   Preconditioner                       .... Diag
   Full preconditioner red. dimension   ....   250
 SOSCF                 CNVSOSCF           .... on
   Start iteration     SOSCFMaxIt         ....   150
   Startup grad/error  SOSCFStart         ....  0.003300
   Hessian update      SOSCFHessUp        .... L-BFGS
   Autom. constraints  SOSCFAutoConstrain .... off
 Level Shifting         CNVShift        .... on
   Level shift para.    LevelShift      ....    0.2500
   Turn off err/grad.   ShiftErr        ....    0.0010
 Zerner damping         CNVZerner       .... off
 Static damping         CNVDamp         .... on
   Fraction old density DampFac         ....    0.7000
   Max. Damping (<1)    DampMax         ....    0.9800
   Min. Damping (>=0)   DampMin         ....    0.0000
   Turn off err/grad.   DampErr         ....    0.1000

SCF Procedure:
 Maximum # iterations   MaxIter         ....   125
 SCF integral mode      SCFMode         .... Direct
   Integral package                     .... SHARK and LIBINT hybrid scheme
 Reset frequency        DirectResetFreq ....    20
 Integral Threshold     Thresh          ....  2.500e-11 Eh
 Primitive CutOff       TCut            ....  2.500e-12 Eh

Convergence Tolerance:
 Convergence Check Mode ConvCheckMode   .... Total+1el-Energy
 Convergence forced     ConvForced      .... 0
 Energy Change          TolE            ....  1.000e-08 Eh
 1-El. energy change                    ....  1.000e-05 Eh
 Orbital Gradient       TolG            ....  1.000e-05
 Orbital Rotation angle TolX            ....  1.000e-05
 DIIS Error             TolErr          ....  5.000e-07

------------------------------
INITIAL GUESS: MODEL POTENTIAL
------------------------------
Loading Hartree-Fock densities                     ... done
Calculating cut-offs                               ... done
Initializing the effective Hamiltonian             ... done
Setting up the integral package (SHARK)            ... done
Starting the Coulomb interaction                   ... done (   0.1 sec)
Making the grid                                    ... done (   0.2 sec)
Mapping shells                                     ... done
Starting the XC term evaluation                    ... done (   0.1 sec)
  promolecular density results
     # of electrons  =     71.987361784
     EX              =    -57.682343093
     EC              =     -2.410412976
     EX+EC           =    -60.092756069
Transforming the Hamiltonian                       ... done (   0.0 sec)
Diagonalizing the Hamiltonian                      ... done (   0.0 sec)
Back transforming the eigenvectors                 ... done (   0.0 sec)
Now organizing SCF variables                       ... done
                      ------------------
                      INITIAL GUESS DONE (   0.5 sec)
                      ------------------
             **** ENERGY FILE WAS UPDATED (/kaggle/working/Leu-2/Leu_InterFrag.en.tmp) ****
Finished Guess after   0.9 sec
Maximum memory used throughout the entire GUESS-calculation: 12.6 MB


           ************************************************************
           *        Program running with 2 parallel MPI-processes     *
           *              working on a common directory               *
           ************************************************************

-------------------------------------------------------------------------------------------
                                      ORCA LEAN-SCF
                              memory conserving SCF solver
-------------------------------------------------------------------------------------------

----------------------------------------D-I-I-S--------------------------------------------
Iteration    Energy (Eh)           Delta-E    RMSDP     MaxDP     DIISErr   Damp  Time(sec)
-------------------------------------------------------------------------------------------
               ***  Starting incremental Fock matrix formation  ***
    1    -441.0526772755306411     0.00e+00  4.65e-03  9.55e-02  2.61e-01  0.700   3.8
    2    -441.2310284518758863    -1.78e-01  3.18e-03  5.35e-02  1.13e-01  0.700   2.1
                               ***Turning on AO-DIIS***
    3    -441.2972499243963966    -6.62e-02  1.25e-03  1.75e-02  3.66e-02  0.700   2.0
    4    -441.3371638873528582    -3.99e-02  1.82e-03  2.25e-02  1.67e-02  0.000   2.1
    5    -441.4256805089870568    -8.85e-02  4.47e-04  7.31e-03  7.55e-03  0.000   2.0
                              *** Initializing SOSCF ***
---------------------------------------S-O-S-C-F--------------------------------------
Iteration    Energy (Eh)           Delta-E    RMSDP     MaxDP     MaxGrad    Time(sec)
--------------------------------------------------------------------------------------
    6    -441.4262467098878915    -5.66e-04  1.43e-04  2.00e-03  2.20e-03     1.8
               *** Restarting incremental Fock matrix formation ***
    7    -441.4262548458798392    -8.14e-06  9.33e-05  1.52e-03  2.30e-04     3.8
    8    -441.4262552822675616    -4.36e-07  3.09e-05  4.76e-04  2.66e-04     2.8
    9    -441.4262586023825179    -3.32e-06  2.17e-05  5.62e-04  1.84e-04     2.5
   10    -441.4262582219585056     3.80e-07  1.24e-05  3.33e-04  2.60e-04     2.3
   11    -441.4262588434992267    -6.22e-07  2.88e-06  6.84e-05  8.67e-06     2.2
   12    -441.4262588464034707    -2.90e-09  1.52e-06  4.20e-05  1.19e-05     2.0
                 **** Energy Check signals convergence ****

               *****************************************************
               *                     SUCCESS                       *
               *           SCF CONVERGED AFTER  12 CYCLES          *
               *****************************************************

Recomputing exchange energy using gridx3       ... done (    6.119 sec)
Old exchange energy                            :    -11.773479214 Eh
New exchange energy                            :    -11.773490033 Eh
Exchange energy change after final integration :     -0.000010819 Eh
Total energy after final integration           :   -441.426269669 Eh
             **** ENERGY FILE WAS UPDATED (/kaggle/working/Leu-2/Leu_InterFrag.en.tmp) ****

----------------
TOTAL SCF ENERGY
----------------

Total Energy       :       -441.42626966876946 Eh          -12011.81947 eV

Components:
Nuclear Repulsion  :        494.58267324229553 Eh           13458.27874 eV
Electronic Energy  :       -936.00893209193396 Eh          -25470.09792 eV
One Electron Energy:      -1580.87988731866790 Eh          -43017.92872 eV
Two Electron Energy:        644.87095522673394 Eh           17547.83081 eV

Virial components:
Potential Energy   :       -880.07346795432682 Eh          -23948.01656 eV
Kinetic Energy     :        438.64719828555729 Eh           11936.19709 eV
Virial Ratio       :          2.00633555028751

DFT components:
N(Alpha)           :       35.999981982093 electrons
N(Beta)            :       35.999981982093 electrons
N(Total)           :       71.999963964186 electrons
E(X)               :      -46.735060615302 Eh       
E(C)               :       -2.846359948200 Eh       
E(XC)              :      -49.581420563502 Eh       

---------------
SCF CONVERGENCE
---------------

  Last Energy change         ...    2.9042e-09  Tolerance :   1.0000e-08
  Last MAX-Density change    ...    4.1972e-05  Tolerance :   1.0000e-07
  Last RMS-Density change    ...    1.5236e-06  Tolerance :   5.0000e-09
  Last DIIS Error            ...    2.2004e-03  Tolerance :   5.0000e-07
  Last Orbital Gradient      ...    1.1916e-05  Tolerance :   1.0000e-05
  Last Orbital Rotation      ...    7.9562e-06  Tolerance :   1.0000e-05


----------------
ORBITAL ENERGIES
----------------

  NO   OCC          E(Eh)            E(eV) 
   0   2.0000     -19.194024      -522.2959 
   1   2.0000     -19.130547      -520.5687 
   2   2.0000     -14.313333      -389.4856 
   3   2.0000     -10.310927      -280.5746 
   4   2.0000     -10.217555      -278.0338 
   5   2.0000     -10.185156      -277.1522 
   6   2.0000     -10.178870      -276.9811 
   7   2.0000     -10.167760      -276.6788 
   8   2.0000     -10.164234      -276.5829 
   9   2.0000      -1.102712       -30.0063 
  10   2.0000      -1.007704       -27.4210 
  11   2.0000      -0.890256       -24.2251 
  12   2.0000      -0.803329       -21.8597 
  13   2.0000      -0.725879       -19.7522 
  14   2.0000      -0.679577       -18.4922 
  15   2.0000      -0.672262       -18.2932 
  16   2.0000      -0.592476       -16.1221 
  17   2.0000      -0.549038       -14.9401 
  18   2.0000      -0.522195       -14.2096 
  19   2.0000      -0.478001       -13.0071 
  20   2.0000      -0.474249       -12.9050 
  21   2.0000      -0.443667       -12.0728 
  22   2.0000      -0.436230       -11.8704 
  23   2.0000      -0.429361       -11.6835 
  24   2.0000      -0.423284       -11.5181 
  25   2.0000      -0.406075       -11.0499 
  26   2.0000      -0.385531       -10.4908 
  27   2.0000      -0.380041       -10.3414 
  28   2.0000      -0.371616       -10.1122 
  29   2.0000      -0.355216        -9.6659 
  30   2.0000      -0.330791        -9.0013 
  31   2.0000      -0.325230        -8.8500 
  32   2.0000      -0.320684        -8.7262 
  33   2.0000      -0.311725        -8.4825 
  34   2.0000      -0.270510        -7.3610 
  35   2.0000      -0.239700        -6.5226 
  36   0.0000       0.010118         0.2753 
  37   0.0000       0.071355         1.9417 
  38   0.0000       0.080053         2.1783 
  39   0.0000       0.103342         2.8121 
  40   0.0000       0.119178         3.2430 
  41   0.0000       0.143324         3.9001 
  42   0.0000       0.147767         4.0209 
  43   0.0000       0.157256         4.2791 
  44   0.0000       0.172065         4.6821 
  45   0.0000       0.173506         4.7213 
  46   0.0000       0.190829         5.1927 
  47   0.0000       0.191427         5.2090 
  48   0.0000       0.198568         5.4033 
  49   0.0000       0.211042         5.7427 
  50   0.0000       0.220597         6.0027 
  51   0.0000       0.232717         6.3326 
  52   0.0000       0.245942         6.6924 
  53   0.0000       0.256239         6.9726 
  54   0.0000       0.277803         7.5594 
  55   0.0000       0.287255         7.8166 
  56   0.0000       0.339904         9.2493 
  57   0.0000       0.377431        10.2704 
  58   0.0000       0.503784        13.7087 
  59   0.0000       0.505701        13.7608 
  60   0.0000       0.515008        14.0141 
  61   0.0000       0.534870        14.5546 
  62   0.0000       0.551723        15.0131 
  63   0.0000       0.556317        15.1382 
  64   0.0000       0.601477        16.3670 
  65   0.0000       0.626851        17.0575 
  66   0.0000       0.637671        17.3519 
  67   0.0000       0.650970        17.7138 
  68   0.0000       0.669191        18.2096 
  69   0.0000       0.700555        19.0631 
  70   0.0000       0.709163        19.2973 
  71   0.0000       0.713369        19.4118 
  72   0.0000       0.732501        19.9324 
  73   0.0000       0.751080        20.4379 
  74   0.0000       0.762228        20.7413 
  75   0.0000       0.776670        21.1343 
  76   0.0000       0.798653        21.7325 
  77   0.0000       0.804656        21.8958 
  78   0.0000       0.821248        22.3473 
  79   0.0000       0.845040        22.9947 
  80   0.0000       0.862458        23.4687 
  81   0.0000       0.871954        23.7271 
  82   0.0000       0.884910        24.0796 
  83   0.0000       0.893105        24.3026 
  84   0.0000       0.898914        24.4607 
  85   0.0000       0.925010        25.1708 
  86   0.0000       0.932400        25.3719 
  87   0.0000       0.934166        25.4199 
  88   0.0000       0.948196        25.8017 
  89   0.0000       0.963620        26.2214 
  90   0.0000       0.971568        26.4377 
  91   0.0000       0.977353        26.5951 
  92   0.0000       0.994235        27.0545 
  93   0.0000       1.032655        28.1000 
  94   0.0000       1.046421        28.4746 
  95   0.0000       1.052426        28.6380 
  96   0.0000       1.075140        29.2561 
  97   0.0000       1.127505        30.6810 
  98   0.0000       1.146167        31.1888 
  99   0.0000       1.174175        31.9509 
 100   0.0000       1.285055        34.9681 
 101   0.0000       1.308731        35.6124 
 102   0.0000       1.347497        36.6673 
 103   0.0000       1.376639        37.4602 
 104   0.0000       1.433811        39.0160 
 105   0.0000       1.442521        39.2530 
 106   0.0000       1.461343        39.7652 
 107   0.0000       1.493044        40.6278 
 108   0.0000       1.509630        41.0791 
 109   0.0000       1.572947        42.8021 
 110   0.0000       1.592478        43.3335 
 111   0.0000       1.629300        44.3355 
 112   0.0000       1.645584        44.7786 
 113   0.0000       1.678653        45.6785 
 114   0.0000       1.721478        46.8438 
 115   0.0000       1.749700        47.6118 
 116   0.0000       1.757709        47.8297 
 117   0.0000       1.783553        48.5329 
 118   0.0000       1.806038        49.1448 
 119   0.0000       1.810406        49.2637 
 120   0.0000       1.830153        49.8010 
 121   0.0000       1.842470        50.1362 
 122   0.0000       1.875983        51.0481 
 123   0.0000       1.885857        51.3168 
 124   0.0000       1.904440        51.8225 
 125   0.0000       1.944150        52.9030 
 126   0.0000       1.975983        53.7692 
 127   0.0000       1.987849        54.0921 
 128   0.0000       2.008236        54.6469 
 129   0.0000       2.032068        55.2954 
 130   0.0000       2.050702        55.8024 
 131   0.0000       2.079132        56.5761 
 132   0.0000       2.086205        56.7685 
 133   0.0000       2.103736        57.2456 
 134   0.0000       2.120701        57.7072 
 135   0.0000       2.126405        57.8624 
 136   0.0000       2.146348        58.4051 
 137   0.0000       2.157890        58.7192 
 138   0.0000       2.173492        59.1437 
 139   0.0000       2.200753        59.8855 
 140   0.0000       2.231241        60.7152 
 141   0.0000       2.263016        61.5798 
 142   0.0000       2.278508        62.0013 
 143   0.0000       2.298307        62.5401 
 144   0.0000       2.313461        62.9525 
 145   0.0000       2.337924        63.6181 
 146   0.0000       2.350325        63.9556 
 147   0.0000       2.353990        64.0553 
 148   0.0000       2.394403        65.1550 
 149   0.0000       2.397669        65.2439 
 150   0.0000       2.426566        66.0302 
 151   0.0000       2.463149        67.0257 
 152   0.0000       2.466733        67.1232 
 153   0.0000       2.490808        67.7783 
 154   0.0000       2.550276        69.3966 
 155   0.0000       2.570142        69.9371 
 156   0.0000       2.584704        70.3334 
 157   0.0000       2.626880        71.4811 
 158   0.0000       2.659654        72.3729 
 159   0.0000       2.693550        73.2952 
 160   0.0000       2.710866        73.7664 
 161   0.0000       2.717333        73.9424 
 162   0.0000       2.724810        74.1459 
 163   0.0000       2.738305        74.5131 
 164   0.0000       2.754339        74.9494 
 165   0.0000       2.790304        75.9280 
 166   0.0000       2.809497        76.4503 
 167   0.0000       2.833382        77.1003 
 168   0.0000       2.878494        78.3278 
 169   0.0000       2.900476        78.9260 
 170   0.0000       2.901556        78.9553 
 171   0.0000       2.927172        79.6524 
 172   0.0000       2.928031        79.6758 
 173   0.0000       2.947449        80.2042 
 174   0.0000       2.968070        80.7653 
 175   0.0000       2.974184        80.9317 
 176   0.0000       3.078726        83.7764 
 177   0.0000       3.157407        85.9174 
 178   0.0000       3.189228        86.7833 
 179   0.0000       3.244740        88.2939 
 180   0.0000       3.314041        90.1796 
 181   0.0000       3.323974        90.4499 
 182   0.0000       3.347759        91.0972 
 183   0.0000       3.384660        92.1013 
 184   0.0000       3.434219        93.4498 
 185   0.0000       3.443295        93.6968 
 186   0.0000       3.470263        94.4307 
 187   0.0000       3.483731        94.7971 
 188   0.0000       3.526601        95.9637 
 189   0.0000       3.550200        96.6059 
 190   0.0000       3.576713        97.3273 

                    ********************************
                    * MULLIKEN POPULATION ANALYSIS *
                    ********************************

-----------------------
MULLIKEN ATOMIC CHARGES
-----------------------
   0 O :   -0.469488
   1 O :   -0.447278
   2 N :   -0.564237
   3 C :   -0.051986
   4 C :   -0.180204
   5 C :   -0.023677
   6 C :   -0.310487
   7 C :   -0.310331
   8 C :    0.562661
   9 H :    0.087567
  10 H :    0.102207
  11 H :    0.081694
  12 H :    0.116850
  13 H :    0.109414
  14 H :    0.093062
  15 H :    0.098935
  16 H :    0.108519
  17 H :    0.098231
  18 H :    0.094975
  19 H :    0.234215
  20 H :    0.245074
  21 H :    0.324283
Sum of atomic charges:   -0.0000000

--------------------------------
MULLIKEN REDUCED ORBITAL CHARGES
--------------------------------
  0 O s       :     3.827640  s :     3.827640
      pz      :     1.565311  p :     4.618374
      px      :     1.720844
      py      :     1.332220
      dz2     :     0.007684  d :     0.023473
      dxz     :     0.004715
      dyz     :     0.005995
      dx2y2   :     0.001716
      dxy     :     0.003362

  1 O s       :     3.861034  s :     3.861034
      pz      :     1.446777  p :     4.558506
      px      :     1.429571
      py      :     1.682158
      dz2     :     0.008161  d :     0.027737
      dxz     :     0.007944
      dyz     :     0.006496
      dx2y2   :     0.003013
      dxy     :     0.002123

  2 N s       :     3.614064  s :     3.614064
      pz      :     1.368360  p :     3.919342
      px      :     1.447928
      py      :     1.103054
      dz2     :     0.012949  d :     0.030830
      dxz     :     0.002364
      dyz     :     0.000785
      dx2y2   :     0.005141
      dxy     :     0.009591

  3 C s       :     3.198398  s :     3.198398
      pz      :     0.934515  p :     2.809661
      px      :     0.952899
      py      :     0.922247
      dz2     :     0.008636  d :     0.043927
      dxz     :     0.010387
      dyz     :     0.007178
      dx2y2   :     0.008462
      dxy     :     0.009265

  4 C s       :     3.222548  s :     3.222548
      pz      :     0.990952  p :     2.920418
      px      :     0.930670
      py      :     0.998796
      dz2     :     0.009929  d :     0.037238
      dxz     :     0.009190
      dyz     :     0.001718
      dx2y2   :     0.009692
      dxy     :     0.006708

  5 C s       :     3.193450  s :     3.193450
      pz      :     1.016032  p :     2.773626
      px      :     0.880550
      py      :     0.877044
      dz2     :     0.013559  d :     0.056602
      dxz     :     0.011202
      dyz     :     0.004606
      dx2y2   :     0.012780
      dxy     :     0.014455

  6 C s       :     3.241699  s :     3.241699
      pz      :     0.972896  p :     3.036931
      px      :     1.032768
      py      :     1.031267
      dz2     :     0.007707  d :     0.031857
      dxz     :     0.007367
      dyz     :     0.005012
      dx2y2   :     0.006749
      dxy     :     0.005022

  7 C s       :     3.241677  s :     3.241677
      pz      :     1.042758  p :     3.036927
      px      :     1.037879
      py      :     0.956289
      dz2     :     0.006958  d :     0.031727
      dxz     :     0.006017
      dyz     :     0.005271
      dx2y2   :     0.005516
      dxy     :     0.007966

  8 C s       :     2.981332  s :     2.981332
      pz      :     0.700603  p :     2.333782
      px      :     0.780768
      py      :     0.852411
      dz2     :     0.037392  d :     0.122225
      dxz     :     0.023377
      dyz     :     0.037863
      dx2y2   :     0.009901
      dxy     :     0.013692

  9 H s       :     0.901031  s :     0.901031
      pz      :     0.004116  p :     0.011402
      px      :     0.004447
      py      :     0.002839

 10 H s       :     0.886406  s :     0.886406
      pz      :     0.006247  p :     0.011388
      px      :     0.002700
      py      :     0.002441

 11 H s       :     0.906871  s :     0.906871
      pz      :     0.002411  p :     0.011435
      px      :     0.002552
      py      :     0.006472

 12 H s       :     0.872209  s :     0.872209
      pz      :     0.006740  p :     0.010941
      px      :     0.002440
      py      :     0.001762

 13 H s       :     0.879164  s :     0.879164
      pz      :     0.004370  p :     0.011422
      px      :     0.003924
      py      :     0.003128

 14 H s       :     0.895562  s :     0.895562
      pz      :     0.002480  p :     0.011375
      px      :     0.002467
      py      :     0.006429

 15 H s       :     0.889670  s :     0.889670
      pz      :     0.002249  p :     0.011396
      px      :     0.005897
      py      :     0.003249

 16 H s       :     0.880103  s :     0.880103
      pz      :     0.005971  p :     0.011378
      px      :     0.003158
      py      :     0.002249

 17 H s       :     0.890151  s :     0.890151
      pz      :     0.004335  p :     0.011618
      px      :     0.004005
      py      :     0.003279

 18 H s       :     0.893614  s :     0.893614
      pz      :     0.002408  p :     0.011410
      px      :     0.005749
      py      :     0.003253

 19 H s       :     0.742054  s :     0.742054
      pz      :     0.006036  p :     0.023731
      px      :     0.006722
      py      :     0.010973

 20 H s       :     0.731336  s :     0.731336
      pz      :     0.011940  p :     0.023589
      px      :     0.007146
      py      :     0.004504

 21 H s       :     0.638219  s :     0.638219
      pz      :     0.007428  p :     0.037498
      px      :     0.011174
      py      :     0.018896


------------------------
MULLIKEN OVERLAP CHARGES
------------------------
B(  0-O ,  1-O ) :  -0.1637 B(  0-O ,  5-C ) :  -0.1545 B(  0-O ,  8-C ) :   0.5709 
B(  0-O , 21-H ) :   0.5458 B(  1-O ,  5-C ) :  -0.1591 B(  1-O ,  8-C ) :   1.2090 
B(  2-N ,  4-C ) :  -0.1115 B(  2-N ,  5-C ) :   0.6743 B(  2-N ,  8-C ) :  -0.0777 
B(  2-N , 12-H ) :  -0.0748 B(  2-N , 19-H ) :   0.6823 B(  2-N , 20-H ) :   0.6755 
B(  3-C ,  4-C ) :   0.6703 B(  3-C ,  5-C ) :  -0.0531 B(  3-C ,  6-C ) :   0.7628 
B(  3-C ,  7-C ) :   0.7664 B(  3-C ,  9-H ) :   0.7605 B(  3-C , 10-H ) :  -0.0567 
B(  3-C , 11-H ) :  -0.0585 B(  3-C , 13-H ) :  -0.0625 B(  3-C , 14-H ) :  -0.0620 
B(  3-C , 15-H ) :  -0.0575 B(  3-C , 16-H ) :  -0.0564 B(  3-C , 17-H ) :  -0.0647 
B(  3-C , 18-H ) :  -0.0579 B(  4-C ,  5-C ) :   0.7117 B(  4-C ,  6-C ) :  -0.0991 
B(  4-C ,  7-C ) :  -0.0820 B(  4-C ,  8-C ) :  -0.0657 B(  4-C ,  9-H ) :  -0.0693 
B(  4-C , 10-H ) :   0.7320 B(  4-C , 11-H ) :   0.7343 B(  4-C , 12-H ) :  -0.0916 
B(  5-C ,  8-C ) :   0.6121 B(  5-C , 10-H ) :  -0.0749 B(  5-C , 11-H ) :  -0.0820 
B(  5-C , 12-H ) :   0.7361 B(  5-C , 19-H ) :  -0.0893 B(  5-C , 20-H ) :  -0.0874 
B(  6-C ,  7-C ) :  -0.1041 B(  6-C ,  9-H ) :  -0.0897 B(  6-C , 13-H ) :   0.7666 
B(  6-C , 14-H ) :   0.7530 B(  6-C , 15-H ) :   0.7592 B(  7-C ,  9-H ) :  -0.0880 
B(  7-C , 16-H ) :   0.7610 B(  7-C , 17-H ) :   0.7512 B(  7-C , 18-H ) :   0.7501 
B(  8-C , 12-H ) :  -0.0685 B( 10-H , 11-H ) :  -0.0689 B( 13-H , 14-H ) :  -0.0659 
B( 13-H , 15-H ) :  -0.0615 B( 14-H , 15-H ) :  -0.0608 B( 16-H , 17-H ) :  -0.0643 
B( 16-H , 18-H ) :  -0.0596 B( 17-H , 18-H ) :  -0.0628 B( 19-H , 20-H ) :  -0.0644 



                     *******************************
                     * LOEWDIN POPULATION ANALYSIS *
                     *******************************

----------------------
LOEWDIN ATOMIC CHARGES
----------------------
   0 O :   -0.148195
   1 O :   -0.245508
   2 N :   -0.254343
   3 C :   -0.066946
   4 C :   -0.128821
   5 C :   -0.040524
   6 C :   -0.198904
   7 C :   -0.201158
   8 C :    0.154688
   9 H :    0.067170
  10 H :    0.071116
  11 H :    0.063733
  12 H :    0.077151
  13 H :    0.068932
  14 H :    0.065419
  15 H :    0.069878
  16 H :    0.072427
  17 H :    0.066268
  18 H :    0.068529
  19 H :    0.123171
  20 H :    0.128421
  21 H :    0.187497

-------------------------------
LOEWDIN REDUCED ORBITAL CHARGES
-------------------------------
  0 O s       :     3.476699  s :     3.476699
      pz      :     1.586275  p :     4.621903
      px      :     1.691876
      py      :     1.343751
      dz2     :     0.015211  d :     0.049593
      dxz     :     0.006590
      dyz     :     0.014890
      dx2y2   :     0.005590
      dxy     :     0.007313

  1 O s       :     3.562254  s :     3.562254
      pz      :     1.514322  p :     4.628235
      px      :     1.437176
      py      :     1.676737
      dz2     :     0.016788  d :     0.055019
      dxz     :     0.016114
      dyz     :     0.013509
      dx2y2   :     0.004091
      dxy     :     0.004516

  2 N s       :     3.220508  s :     3.220508
      pz      :     1.371571  p :     3.975704
      px      :     1.461906
      py      :     1.142228
      dz2     :     0.021286  d :     0.058131
      dxz     :     0.004902
      dyz     :     0.002435
      dx2y2   :     0.010752
      dxy     :     0.018756

  3 C s       :     2.878359  s :     2.878359
      pz      :     1.033870  p :     3.089642
      px      :     1.030552
      py      :     1.025220
      dz2     :     0.021495  d :     0.098945
      dxz     :     0.022035
      dyz     :     0.014749
      dx2y2   :     0.019786
      dxy     :     0.020880

  4 C s       :     2.910213  s :     2.910213
      pz      :     1.059333  p :     3.137189
      px      :     1.020719
      py      :     1.057137
      dz2     :     0.020234  d :     0.081419
      dxz     :     0.020990
      dyz     :     0.003614
      dx2y2   :     0.020749
      dxy     :     0.015832

  5 C s       :     2.879955  s :     2.879955
      pz      :     1.071858  p :     3.035703
      px      :     0.988305
      py      :     0.975539
      dz2     :     0.028250  d :     0.124866
      dxz     :     0.025754
      dyz     :     0.009329
      dx2y2   :     0.028390
      dxy     :     0.033142

  6 C s       :     2.917537  s :     2.917537
      pz      :     1.047690  p :     3.217136
      px      :     1.084109
      py      :     1.085337
      dz2     :     0.016935  d :     0.064231
      dxz     :     0.015177
      dyz     :     0.009906
      dx2y2   :     0.012837
      dxy     :     0.009376

  7 C s       :     2.917664  s :     2.917664
      pz      :     1.090140  p :     3.219510
      px      :     1.091538
      py      :     1.037832
      dz2     :     0.013775  d :     0.063984
      dxz     :     0.011259
      dyz     :     0.010541
      dx2y2   :     0.012821
      dxy     :     0.015589

  8 C s       :     2.854683  s :     2.854683
      pz      :     0.928779  p :     2.705162
      px      :     0.822115
      py      :     0.954268
      dz2     :     0.091821  d :     0.285467
      dxz     :     0.053116
      dyz     :     0.089945
      dx2y2   :     0.020639
      dxy     :     0.029946

  9 H s       :     0.895227  s :     0.895227
      pz      :     0.013729  p :     0.037603
      px      :     0.015039
      py      :     0.008836

 10 H s       :     0.889702  s :     0.889702
      pz      :     0.023322  p :     0.039182
      px      :     0.008731
      py      :     0.007129

 11 H s       :     0.897858  s :     0.897858
      pz      :     0.007011  p :     0.038409
      px      :     0.007826
      py      :     0.023572

 12 H s       :     0.882848  s :     0.882848
      pz      :     0.025272  p :     0.040001
      px      :     0.008104
      py      :     0.006625

 13 H s       :     0.892120  s :     0.892120
      pz      :     0.015569  p :     0.038947
      px      :     0.013544
      py      :     0.009835

 14 H s       :     0.896340  s :     0.896340
      pz      :     0.007787  p :     0.038242
      px      :     0.007033
      py      :     0.023421

 15 H s       :     0.891742  s :     0.891742
      pz      :     0.006964  p :     0.038379
      px      :     0.021120
      py      :     0.010295

 16 H s       :     0.888882  s :     0.888882
      pz      :     0.021890  p :     0.038691
      px      :     0.009888
      py      :     0.006914

 17 H s       :     0.894189  s :     0.894189
      pz      :     0.015175  p :     0.039543
      px      :     0.013395
      py      :     0.010973

 18 H s       :     0.893128  s :     0.893128
      pz      :     0.006853  p :     0.038343
      px      :     0.020622
      py      :     0.010868

 19 H s       :     0.799590  s :     0.799590
      pz      :     0.016617  p :     0.077239
      px      :     0.022034
      py      :     0.038588

 20 H s       :     0.793639  s :     0.793639
      pz      :     0.044576  p :     0.077940
      px      :     0.021784
      py      :     0.011580

 21 H s       :     0.699055  s :     0.699055
      pz      :     0.022069  p :     0.113447
      px      :     0.033518
      py      :     0.057860


---------------------------------
LOEWDIN BOND ORDERS (THRESH 0.050000)
---------------------------------
B(  0-O ,  1-O ) :   0.2023 B(  0-O ,  5-C ) :   0.0629 B(  0-O ,  8-C ) :   1.3968 
B(  0-O , 21-H ) :   0.9842 B(  1-O ,  5-C ) :   0.0838 B(  1-O ,  8-C ) :   2.2009 
B(  2-N ,  4-C ) :   0.0716 B(  2-N ,  5-C ) :   1.1385 B(  2-N ,  8-C ) :   0.0629 
B(  2-N , 19-H ) :   0.9865 B(  2-N , 20-H ) :   0.9842 B(  3-C ,  4-C ) :   1.0316 
B(  3-C ,  6-C ) :   1.0579 B(  3-C ,  7-C ) :   1.0586 B(  3-C ,  9-H ) :   0.9099 
B(  4-C ,  5-C ) :   1.0168 B(  4-C ,  8-C ) :   0.0513 B(  4-C , 10-H ) :   0.9277 
B(  4-C , 11-H ) :   0.9254 B(  5-C ,  8-C ) :   0.9811 B(  5-C , 12-H ) :   0.9057 
B(  6-C , 13-H ) :   0.9573 B(  6-C , 14-H ) :   0.9597 B(  6-C , 15-H ) :   0.9582 
B(  7-C , 16-H ) :   0.9579 B(  7-C , 17-H ) :   0.9529 B(  7-C , 18-H ) :   0.9572 
B(  8-C , 21-H ) :   0.0572 

------------------------------------------
LOEWDIN REDUCED ORBITAL POPULATIONS PER MO
-------------------------------------------
THRESHOLD FOR PRINTING IS 0.1%%
                      0         1         2         3         4         5   
                 -19.19402 -19.13055 -14.31333 -10.31093 -10.21756 -10.18516
                   2.00000   2.00000   2.00000   2.00000   2.00000   2.00000
                  --------  --------  --------  --------  --------  --------
 0 O  s              99.9       0.0       0.0       0.0       0.0       0.0
 0 O  pz              0.0       0.0       0.0       0.1       0.0       0.0
 1 O  s               0.0      99.8       0.0       0.1       0.0       0.0
 1 O  pz              0.0       0.0       0.0       0.3       0.0       0.0
 2 N  s               0.0       0.0      99.7       0.0       0.0       0.0
 3 C  s               0.0       0.0       0.0       0.0       0.0      99.4
 5 C  s               0.0       0.0       0.0       0.0      99.4       0.0
 5 C  py              0.0       0.0       0.0       0.1       0.0       0.0
 6 C  pz              0.0       0.0       0.0       0.0       0.0       0.1
 7 C  py              0.0       0.0       0.0       0.0       0.0       0.1
 8 C  s               0.0       0.0       0.0      98.9       0.0       0.0
 8 C  py              0.0       0.0       0.0       0.0       0.1       0.0

                      6         7         8         9        10        11   
                 -10.17887 -10.16776 -10.16423  -1.10271  -1.00770  -0.89026
                   2.00000   2.00000   2.00000   2.00000   2.00000   2.00000
                  --------  --------  --------  --------  --------  --------
 0 O  s               0.0       0.0       0.0      42.0      18.3       0.1
 0 O  pz              0.0       0.0       0.0       2.7       0.3       0.0
 0 O  px              0.0       0.0       0.0       0.2       0.0       0.0
 0 O  py              0.0       0.0       0.0       0.0       0.2       0.2
 1 O  s               0.0       0.0       0.0      13.3      41.4       1.2
 1 O  pz              0.0       0.0       0.0       2.2       2.2       0.1
 1 O  px              0.0       0.0       0.0       0.4       0.7       0.0
 1 O  py              0.0       0.0       0.0       0.1       0.5       0.0
 2 N  s               0.0       0.0       0.0       0.1       0.2      38.3
 2 N  pz              0.0       0.0       0.0       0.0       0.0       0.3
 2 N  px              0.0       0.0       0.0       0.0       0.0       2.2
 2 N  py              0.0       0.0       0.0       0.1       0.0       0.2
 3 C  s               0.0       0.0       0.0       0.0       0.0       0.5
 3 C  pz              0.0       0.1       0.0       0.0       0.0       0.0
 3 C  px              0.1       0.0       0.0       0.0       0.0       0.2
 3 C  py              0.0       0.0       0.1       0.0       0.0       0.1
 4 C  s              99.5       0.0       0.0       0.0       0.0       3.4
 4 C  pz              0.0       0.0       0.0       0.0       0.0       0.6
 4 C  px              0.0       0.0       0.0       0.1       0.0       1.1
 5 C  s               0.0       0.0       0.0       0.9       0.3      16.6
 5 C  pz              0.1       0.0       0.0       0.0       0.2       0.5
 5 C  px              0.1       0.0       0.0       0.3       0.2       2.0
 5 C  py              0.0       0.0       0.0       1.3       0.1       2.5
 5 C  dxy             0.0       0.0       0.0       0.0       0.0       0.2
 6 C  s               0.0      99.6       0.0       0.0       0.0       0.1
 7 C  s               0.0       0.0      99.6       0.0       0.0       0.1
 8 C  s               0.0       0.0       0.0      19.3       4.2       0.4
 8 C  pz              0.0       0.0       0.0       0.7      22.1       0.3
 8 C  px              0.0       0.0       0.0       0.4       2.4       0.6
 8 C  py              0.0       0.0       0.0       4.2       0.1       3.9
 8 C  dz2             0.0       0.0       0.0       0.6       0.1       0.1
 8 C  dxz             0.0       0.0       0.0       0.2       0.5       0.0
 8 C  dyz             0.0       0.0       0.0       0.2       1.3       0.0
 8 C  dxy             0.0       0.0       0.0       0.0       0.1       0.0
10 H  s               0.1       0.0       0.0       0.0       0.0       0.6
11 H  s               0.1       0.0       0.0       0.0       0.0       0.7
12 H  s               0.0       0.0       0.0       0.2       0.0       2.5
12 H  pz              0.0       0.0       0.0       0.0       0.0       0.1
19 H  s               0.0       0.0       0.0       0.0       0.0       8.9
19 H  py              0.0       0.0       0.0       0.0       0.0       0.9
20 H  s               0.0       0.0       0.0       0.0       0.1       8.6
20 H  pz              0.0       0.0       0.0       0.0       0.0       0.9
20 H  px              0.0       0.0       0.0       0.0       0.0       0.1
21 H  s               0.0       0.0       0.0       8.4       3.2       0.1
21 H  px              0.0       0.0       0.0       0.3       0.1       0.0
21 H  py              0.0       0.0       0.0       1.2       0.6       0.0

                     12        13        14        15        16        17   
                  -0.80333  -0.72588  -0.67958  -0.67226  -0.59248  -0.54904
                   2.00000   2.00000   2.00000   2.00000   2.00000   2.00000
                  --------  --------  --------  --------  --------  --------
 0 O  s               0.0       0.4       0.0       0.6       0.3       0.1
 0 O  pz              0.0       0.4       0.0       1.7       6.6       3.2
 0 O  px              0.0       0.4       0.0       0.9       0.8       0.6
 0 O  py              0.0       3.7       0.0      10.9      20.0       3.9
 0 O  dz2             0.0       0.0       0.0       0.0       0.2       0.1
 0 O  dyz             0.0       0.1       0.0       0.2       0.3       0.0
 1 O  s               0.0       1.0       0.0       1.1       0.4       0.0
 1 O  pz              0.0       0.1       0.0       0.4       0.9       0.1
 1 O  px              0.0       0.2       0.0       0.1       0.0       0.1
 1 O  py              0.0       0.2       0.0       0.2       0.1       0.7
 2 N  s               3.9       8.1       0.0       0.1       1.0       0.0
 2 N  pz              0.1       0.8       0.0       0.3       1.0       1.0
 2 N  px              0.1       0.7       0.0       0.0       1.8       0.1
 2 N  py              0.1       2.7       0.0       1.0       2.4       3.1
 2 N  dxy             0.0       0.1       0.0       0.0       0.1       0.1
 3 C  s              25.2       2.5       0.0       0.3       4.4      10.0
 3 C  pz              0.2       0.4       6.4       1.6       1.5       1.2
 3 C  px              0.3       2.2       1.1       2.5       0.0       2.5
 3 C  py              0.0       1.8       6.3       3.6       1.8       0.2
 3 C  dz2             0.0       0.0       0.2       0.0       0.0       0.0
 3 C  dx2y2           0.0       0.0       0.1       0.0       0.0       0.0
 4 C  s              12.0       7.3       0.0      15.7       0.3       3.9
 4 C  pz              0.2       0.4       0.3       0.8       1.6       0.8
 4 C  px              1.8       2.4       0.1       0.2       5.2       2.5
 4 C  py              1.1       0.0       0.3       0.7       0.1       2.8
 5 C  s               0.8      12.2       0.0       1.4       6.8       1.8
 5 C  pz              0.2       0.0       0.0       3.1       0.1       2.2
 5 C  px              3.2       2.3       0.1       3.6       0.5       3.0
 5 C  py              0.5       3.8       0.1       4.2       0.6       0.4
 5 C  dx2y2           0.0       0.0       0.0       0.1       0.0       0.0
 5 C  dxy             0.1       0.2       0.0       0.0       0.0       0.0
 6 C  s              10.3       4.8      21.3       4.4       1.4       2.2
 6 C  pz              2.2       0.2       0.4       0.2       1.9       6.7
 6 C  px              0.5       0.0       0.0       0.1       0.1       0.2
 6 C  py              0.0       0.1       0.3       0.2       0.1       0.0
 6 C  dz2             0.1       0.0       0.0       0.0       0.0       0.1
 7 C  s               9.7       4.9      22.8       2.8       2.2       2.1
 7 C  pz              0.2       0.0       0.2       0.1       0.0       0.0
 7 C  px              0.0       0.2       0.1       0.0       0.0       0.7
 7 C  py              2.5       0.1       0.3       0.2       2.2       6.2
 7 C  dx2y2           0.1       0.0       0.0       0.0       0.0       0.1
 8 C  s               0.1       3.9       0.0       5.8       2.4       0.1
 8 C  pz              0.0       0.8       0.0       2.5       3.9       0.6
 8 C  px              0.4       2.4       0.1       0.9       0.0       0.2
 8 C  py              0.1       4.6       0.0       2.5       2.2       4.4
 8 C  dz2             0.0       0.0       0.0       0.0       0.2       0.1
 9 H  s               4.8       0.7       0.0       0.2       3.0       7.6
 9 H  pz              0.1       0.0       0.0       0.0       0.1       0.2
 9 H  px              0.1       0.0       0.0       0.0       0.1       0.2
10 H  s               2.1       1.6       0.0       4.9       0.2       3.0
10 H  pz              0.1       0.1       0.0       0.2       0.0       0.1
11 H  s               2.2       1.5       0.1       5.7       0.2       3.4
11 H  py              0.1       0.1       0.0       0.3       0.0       0.1
12 H  s               0.3       3.2       0.0       0.9       3.1       1.1
12 H  pz              0.0       0.2       0.0       0.0       0.2       0.0
13 H  s               2.0       0.9       5.6       1.5       1.3       2.6
13 H  pz              0.1       0.0       0.1       0.0       0.0       0.0
13 H  px              0.0       0.0       0.1       0.0       0.0       0.1
14 H  s               1.9       0.9       6.8       1.0       0.6       1.8
14 H  py              0.1       0.1       0.4       0.1       0.0       0.1
15 H  s               1.8       1.4       5.5       1.6       0.8       1.4
15 H  px              0.1       0.1       0.3       0.1       0.0       0.1
16 H  s               1.7       0.9       6.9       0.5       0.8       1.6
16 H  pz              0.1       0.0       0.3       0.0       0.0       0.1
17 H  s               1.9       1.0       6.0       1.1       1.5       2.9
17 H  pz              0.0       0.0       0.2       0.0       0.0       0.1
17 H  px              0.0       0.0       0.1       0.0       0.0       0.0
18 H  s               1.7       1.3       6.0       1.1       1.2       1.2
18 H  px              0.1       0.1       0.3       0.0       0.1       0.1
19 H  s               1.0       3.4       0.0       0.3       1.0       0.8
19 H  py              0.1       0.3       0.0       0.0       0.0       0.0
20 H  s               1.0       3.0       0.0       0.1       1.4       0.3
20 H  pz              0.1       0.3       0.0       0.0       0.1       0.0
21 H  s               0.0       1.4       0.0       4.1       7.4       1.8
21 H  pz              0.0       0.0       0.0       0.1       0.2       0.1
21 H  px              0.0       0.0       0.0       0.1       0.1       0.0
21 H  py              0.0       0.1       0.0       0.2       0.2       0.0

                     18        19        20        21        22        23   
                  -0.52220  -0.47800  -0.47425  -0.44367  -0.43623  -0.42936
                   2.00000   2.00000   2.00000   2.00000   2.00000   2.00000
                  --------  --------  --------  --------  --------  --------
 0 O  s               0.0       1.7       4.2       0.4       0.0       0.0
 0 O  pz              0.7       5.1      14.5       1.0       2.7       0.0
 0 O  px              0.1      10.7       0.6       6.6       1.3       5.1
 0 O  py              1.7       0.1       9.5       0.6       0.0       1.0
 0 O  dxz             0.0       0.1       0.0       0.1       0.0       0.0
 1 O  s               2.6       3.2       9.3       0.2       0.6       0.1
 1 O  pz              0.4      10.6      16.4       0.2       1.6       0.0
 1 O  px              1.1       0.3       8.2       7.0       0.0       2.5
 1 O  py              4.7       0.2       0.0       0.5       2.7       0.0
 1 O  dz2             0.0       0.2       0.1       0.1       0.0       0.0
 1 O  dxz             0.0       0.0       0.3       0.1       0.0       0.0
 1 O  dyz             0.1       0.0       0.0       0.0       0.1       0.0
 2 N  s               0.0       0.1       0.0       0.0       0.3       0.0
 2 N  pz             10.4       1.9       0.1       5.0       2.2       5.8
 2 N  px              4.5       2.2       0.0       2.4       0.8       1.9
[...]
  5 C      6.0237     6.0000    -0.0237     3.8629     3.8629    -0.0000
  6 C      6.3105     6.0000    -0.3105     3.8858     3.8858    -0.0000
  7 C      6.3103     6.0000    -0.3103     3.8873     3.8873    -0.0000
  8 C      5.4373     6.0000     0.5627     3.9414     3.9414    -0.0000
  9 H      0.9124     1.0000     0.0876     0.9468     0.9468    -0.0000
 10 H      0.8978     1.0000     0.1022     0.9632     0.9632    -0.0000
 11 H      0.9183     1.0000     0.0817     0.9598     0.9598    -0.0000
 12 H      0.8832     1.0000     0.1168     0.9539     0.9539     0.0000
 13 H      0.8906     1.0000     0.1094     0.9593     0.9593    -0.0000
 14 H      0.9069     1.0000     0.0931     0.9572     0.9572    -0.0000
 15 H      0.9011     1.0000     0.0989     0.9575     0.9575    -0.0000
 16 H      0.8915     1.0000     0.1085     0.9578     0.9578    -0.0000
 17 H      0.9018     1.0000     0.0982     0.9703     0.9703    -0.0000
 18 H      0.9050     1.0000     0.0950     0.9564     0.9564    -0.0000
 19 H      0.7658     1.0000     0.2342     0.9238     0.9238     0.0000
 20 H      0.7549     1.0000     0.2451     0.9266     0.9266    -0.0000
 21 H      0.6757     1.0000     0.3243     0.9120     0.9120     0.0000

  Mayer bond orders larger than 0.100000
B(  0-O ,  8-C ) :   1.0787 B(  0-O , 21-H ) :   0.8516 B(  1-O ,  8-C ) :   1.9060 
B(  2-N ,  5-C ) :   1.0146 B(  2-N , 19-H ) :   0.9104 B(  2-N , 20-H ) :   0.9007 
B(  3-C ,  4-C ) :   0.9909 B(  3-C ,  6-C ) :   1.0031 B(  3-C ,  7-C ) :   1.0097 
B(  3-C ,  9-H ) :   0.9446 B(  4-C ,  5-C ) :   0.9777 B(  4-C , 10-H ) :   0.9397 
B(  4-C , 11-H ) :   0.9448 B(  5-C ,  8-C ) :   0.9236 B(  5-C , 12-H ) :   0.9323 
B(  6-C , 13-H ) :   0.9580 B(  6-C , 14-H ) :   0.9631 B(  6-C , 15-H ) :   0.9631 
B(  7-C , 16-H ) :   0.9604 B(  7-C , 17-H ) :   0.9528 B(  7-C , 18-H ) :   0.9613 


-------
TIMINGS
-------

Total SCF time: 0 days 0 hours 0 min 37 sec 

Total time                  ....      37.812 sec
Sum of individual times     ....      36.057 sec  ( 95.4%)

SCF preparation             ....       0.340 sec  (  0.9%)
Fock matrix formation       ....      35.284 sec  ( 93.3%)
  Startup                   ....       0.004 sec  (  0.0% of F)
  Split-RI-J                ....       3.009 sec  (  8.5% of F)
  Chain of spheres X        ....      27.625 sec  ( 78.3% of F)
  XC integration            ....       6.300 sec  ( 17.9% of F)
    XC Preparation          ....       0.000 sec  (  0.0% of XC)
    Basis function eval.    ....       2.421 sec  ( 38.4% of XC)
    Density eval.           ....       1.293 sec  ( 20.5% of XC)
    XC-Functional eval.     ....       0.359 sec  (  5.7% of XC)
    XC-Potential eval.      ....       1.841 sec  ( 29.2% of XC)
Diagonalization             ....       0.000 sec  (  0.0%)
Density matrix formation    ....       0.027 sec  (  0.1%)
Total Energy calculation    ....       0.013 sec  (  0.0%)
Population analysis         ....       0.204 sec  (  0.5%)
Orbital Transformation      ....       0.021 sec  (  0.1%)
Orbital Orthonormalization  ....       0.000 sec  (  0.0%)
DIIS solution               ....       0.100 sec  (  0.3%)
  MO trafo                  ....       0.000 sec  (  0.0 % of DIIS)
  Orb grad                  ....       0.000 sec  (  0.0 % of DIIS)
  Energy W gradient         ....       0.000 sec  (  0.0 % of DIIS)
  DIIS error                ....       0.020 sec  ( 20.4 % of DIIS)
  DIIS work                 ....       0.064 sec  ( 64.4 % of DIIS)
  Form Q                    ....       0.000 sec  (  0.0 % of DIIS)
  Form QpQm                 ....       0.000 sec  (  0.0 % of DIIS)
  Exp/Cayley                ....       0.000 sec  (  0.0 % of DIIS)
  Orb update                ....       0.000 sec  (  0.0 % of DIIS)
  Wake-sleep                ....       0.004 sec  (  3.7 % of DIIS)
SOSCF solution              ....       0.070 sec  (  0.2%)
  MO trafo                  ....       0.023 sec  ( 33.4 % of SOSCF)
  Orb grad                  ....       0.002 sec  (  3.5 % of SOSCF)
  Rot update                ....       0.009 sec  ( 12.8 % of SOSCF)
  Step                      ....       0.031 sec  ( 44.7 % of SOSCF)
Finished LeanSCF after  37.8 sec

Maximum memory used throughout the entire LEANSCF-calculation: 21.9 MB


-------------------------------------------------------------------------------
                          DFT DISPERSION CORRECTION                            
                                                                               
                              DFTD3 V3.1  Rev 1                                
                          USING Becke-Johnson damping                          
-------------------------------------------------------------------------------
The B3LYP functional is recognized
Active option DFTDOPT                   ...         4   

molecular C6(AA) [au] = 3574.580503 


            DFT-D V3
 parameters
 s6 scaling factor         :     1.0000 
 a1 scaling factor         :     0.3981 
 s8 scaling factor         :     1.9889 
 a2 scaling factor         :     4.4211 
 ad hoc parameters k1-k3   :    16.0000     1.3333    -4.0000 

 Edisp/kcal,au: -21.735822059005  -0.034638233587 
 E6   /kcal   : -10.719076111 
 E8   /kcal   : -11.016745948 
 % E8         :  50.684744833 

-------------------------   ----------------
Dispersion correction           -0.034638234
-------------------------   ----------------


-------------------------   --------------------
FINAL SINGLE POINT ENERGY      -441.460907902356
-------------------------   --------------------



           ************************************************************
           *        Program running with 2 parallel MPI-processes     *
           *              working on a common directory               *
           ************************************************************
------------------------------------------------------------------------------
                            ORCA SCF RESPONSE CALCULATION
------------------------------------------------------------------------------

GBWName                                 ... /kaggle/working/Leu-2/Leu_InterFrag.gbw
Number of atoms                         ...     22
Number of basis functions               ...    191
Max core memory                         ...   3000 MB

Electric field perturbation             ... YES
Quadrupolar field perturbation          ...  NO
Magnetic field perturbation (no GIAO)   ...  NO
Magnetic field perturbation (with GIAO) ...  NO
Linear momentum (velocity) perturbation ...  NO
Spin-orbit coupling perturbation        ...  NO
Choice of electric origin               ... Center of mass
Position of electric origin             ...     0.123994    -0.023896     0.053395
Choice of magnetic origin               ... GIAO
Position of magnetic origin             ...     0.000000     0.000000     0.000000
Nuclear geometric perturbations         ...  NO (  66 perturbations)
Nucleus-orbit perturbations             ...  NO (   0 perturbations)
Spin-dipole/Fermi contact perturbations ...  NO (   0 perturbations)

Total number of real perturbations      ...      3
Total number of imaginary perturbations ...      0
Total number of triplet perturbations   ...      0
Total number of SOC perturbations       ...      0

Using XC Grid                  ... (/kaggle/working/Leu-2/Leu_InterFrag.grid_cpscf.tmp) 
Recalculating density on grid  ... (/kaggle/working/Leu-2/Leu_InterFrag.grho_cpscf0.tmp) done
Calculating the xc-kernel      ... (/kaggle/working/Leu-2/Leu_InterFrag.fxc_cpscf0.tmp) done

                                **********************
                                * REAL PERTURBATIONS *
                                **********************



-------------------
SHARK CP-SCF DRIVER
-------------------

Dimension of the orbital basis          ...    191
Dimension of the CPSCF-problem          ...   5580
Number of operators                     ...      1
Max. number of iterations               ...    128
Convergence Tolerance                   ... 1.0e-04
Number of perturbations                 ...      3
Perturbation type                       ... REAL

----------------------------
POPLE LINEAR EQUATION SOLVER
----------------------------

  ITERATION   0:   ||err||_max =   1.1522e+01 (   1.6 sec   0/  3 done)
  ITERATION   1:   ||err||_max =   9.6384e-01 (   1.5 sec   0/  3 done)
  ITERATION   2:   ||err||_max =   2.7501e-01 (   1.5 sec   0/  3 done)
  ITERATION   3:   ||err||_max =   6.7837e-02 (   1.4 sec   0/  3 done)
  ITERATION   4:   ||err||_max =   2.2269e-02 (   1.5 sec   0/  3 done)
  ITERATION   5:   ||err||_max =   5.4569e-03 (   1.5 sec   0/  3 done)
  ITERATION   6:   ||err||_max =   1.4452e-03 (   1.5 sec   0/  3 done)
  ITERATION   7:   ||err||_max =   4.1413e-04 (   1.5 sec   0/  3 done)
  ITERATION   8:   ||err||_max =   1.3184e-04 (   1.5 sec   1/  3 done)
  ITERATION   9:   ||err||_max =   3.6741e-05 (   1.3 sec   3/  3 done)

CP-SCF equations solved in  14.7 sec
Response densities calculated in   0.0 sec

Maximum memory used throughout the entire SCFRESP-calculation: 23.9 MB


           ************************************************************
           *        Program running with 2 parallel MPI-processes     *
           *              working on a common directory               *
           ************************************************************

------------------------------------------------------------------------------
                              ORCA PROPERTY CALCULATIONS
------------------------------------------------------------------------------

GBWName                                 ... /kaggle/working/Leu-2/Leu_InterFrag.gbw
Number of atoms                         ...     22
Number of basis functions               ...    191
Max core memory                         ...   3000 MB

Electric properties:
Dipole moment                           ... YES
Quadrupole moment                       ...  NO
Static polarizability (Dipole/Dipole)   ... YES
Static polarizability (Dipole/Quad.)    ...  NO
Static polarizability (Quad./Quad.)     ...  NO
Static polarizability (Velocity)        ...  NO
Static hyperpolarizability              ...  NO

Atomic electric properties:
Dipole moment                           ...  NO
Quadrupole moment                       ...  NO
Static polarizability                   ...  NO

Choice of electric origin               ... Center of mass
Position of electric origin             ...     0.123994    -0.023896     0.053395

General magnetic properties:
Magnetizability                         ...  NO

EPR properties:
g-Tensor (aka g-matrix)                 ...  NO
Zero-Field splitting spin-orbit         ...  NO
Zero-field splitting spin-spin          ...  NO
Hyperfine couplings                     ...  NO (   0 nuclei)
Quadrupole couplings                    ...  NO (   0 nuclei)
Contact density                         ...  NO (   0 nuclei)

NMR properties:
Chemical shifts                         ...  NO (   0 nuclei)
Spin-rotation constants                 ...  NO (   0 nuclei)
Spin-spin couplings                     ...  NO (   0 nuclei,    0 pairs)

Choice of magnetic origin               ... GIAO
Position of magnetic origin             ...     0.000000     0.000000     0.000000

Properties with geometric perturbations:
SCF Hessian                             ...  NO
IR spectrum                             ...  NO
VCD spectrum                            ...  NO
X-ray spectroscopy properties:
SCF XES/XAS/RIXS spectra                ...  NO

SCF SOC stabilization energy            ...  NO
Diagonal Born-Oppenheimer correction    ...  NO

-------------
DIPOLE MOMENT
-------------

Method             : SCF
Type of density    : Electron Density
Multiplicity       :   1
Irrep              :   0
Energy             :  -441.4262696687694643 Eh
Basis              : AO
                                X                 Y                 Z
Electronic contribution:      9.940722788      -2.535203401       0.547487157
Nuclear contribution   :    -10.657618774       2.716439685      -0.415026120
                        -----------------------------------------
Total Dipole Moment    :     -0.716895986       0.181236284       0.132461037
                        -----------------------------------------
Magnitude (a.u.)       :      0.751220588
Magnitude (Debye)      :      1.909450987



--------------------
Rotational spectrum 
--------------------
 
Rotational constants in cm-1:             0.067810             0.040923             0.034169 
Rotational constants in MHz :          2032.885407          1226.845339          1024.371898 

Dipole components along the rotational axes: 
x,y,z [a.u.] :     0.711643     0.186674     0.151819 
x,y,z [Debye]:     1.808854     0.474487     0.385894 

 

Dipole moment calculation done in   0.0 sec 


---------------------------------------------------
STATIC POLARIZABILITY TENSOR (Dipole/Dipole)
---------------------------------------------------

Method             : SCF
Type of density    : Electron Density
Type of derivative : Electric Field (Direction=X)
Multiplicity       :   1
Irrep              :   0
Basis              : AO

The raw cartesian tensor (atomic units):
      76.980724142         0.296942631        -3.415044847  
       0.296942631        78.350493073        -0.622769174  
      -3.415044847        -0.622769174        70.112638377  
diagonalized tensor: 
      68.681447332        77.869696365        78.892711895  

Orientation: 
       0.378627036        -0.661842319        -0.646997923  
       0.047905501         0.712118765        -0.700422678  
       0.924308731         0.234204203         0.301333305  

Isotropic polarizability :  75.14795


Polarizability tensor calculation done in   0.0 sec 

Maximum memory used throughout the entire PROP-calculation: 11.3 MB

--------------------------------
SUGGESTED CITATIONS FOR THIS RUN
--------------------------------

Below you find a list of papers that are relevant to this ORCA run
We neither can nor want to force you to cite these papers, but we appreciate if you do
You receive ORCA, which is the product of decades of hard work by many enthusiastic individuals, for free
The only thing we kindly ask in return is that you cite our papers,
We deeply appreciate it, if you show your appreciation for ORCA by not just citing the generic ORCA reference.

Please note that relegating all ORCA citations to the supporting information does *not* help us.
SI sections are not indexed - citations you put there will not count into any citation statistics
But we need these citations in order to attract the funding resources that allow us to do what we are doing

Therefore, if you are a happy ORCA user, please consider citing a few of the papers listed below in the main body of your paper

In addition to the list printed below, the program has created the file /kaggle/working/Leu-2/Leu_InterFrag.bibtex that contains the list in bibtex format
You can import this file easily into all common literature databanks and citation aid programs

It goes without saying that in many instances, there are alternative algorithms to achieve similar
results as the ones you have gotten from ORCA. It is, of course, also the case that in some instances
ORCA just re-implements algorithms worked out by others. We are fully aware of that and we are also
fully appreciative of our colleagues work. Hence this citation list should not be read as indicating
that the listed papers, which are focused on our own work, are the only ones worth citing. It simply
meant to make it easier for users to cite ORCA specific papers. It is not a substitute for doing your
own literature research and citing the relevant literature in a scientifically appropriate manner.

List of essential papers. We consider these as the minimum necessary citations

  1. Neese, F.
     Software update: the ORCA program system, version 6.0
     WIRES Comput. Molec. Sci. 2025 15(1), e70019
     doi.org/10.1002/wcms.70019

List of papers to cite with high priority. The work reported in these papers was absolutely
necessary for this run to complete.
Our perspective: the developers of density functionals and basis sets usually get cited in chemistry papers
Good! But without the algorithms to do something with them, the functionals or basis sets would not do anything.
Hence, in our opinion, the algorithm design and method developments papers are equally worthy of getting cited

  1. Neese, F.
     An improvement of the resolution of the identity approximation for the formation of the Coulomb matrix
     J. Comp. Chem. 2003 24(14), 1740-1747
     doi.org/10.1002/jcc.10318
  2. Neese, F.; Wennmohs, F.; Hansen, A.; Becker, U.
     Efficient, approximate and parallel Hartree-Fock and hybrid DFT calculations. A 'chain-of-spheres' algorithm for the Hartree-Fock exchange
     Chem. Phys. 2009 356(1-3), 98-109
     doi.org/10.1016/j.chemphys.2008.10.036
  3. Grimme, S.; Antony, J.; Ehrlich, S.; Krieg, H.
     A consistent and accurate ab initio parametrization of density functional dispersion correction (DFT-D) for the 94 elements H-Pu
     J. Chem. Phys. 2010 132 , 154104
     doi.org/10.1063/1.3382344
  4. Grimme, S.; Ehrlich, S.; Goerigk, L.
     Effect of the damping function in dispersion corrected density functional theory
     J. Comput. Chem. 2011 32(7), 1456-1465
     doi.org/10.1002/jcc.21759
  5. Helmich-Paris, B.; de Souza, B.; Neese, F.; Izsák, R.
     An improved chain of spheres for exchange algorithm
     J. Chem. Phys. 2021 155(10), 104109
     doi.org/10.1063/5.0058766
  6. Neese, F.
     The SHARK Integral Generation and Digestion System
     J. Comp. Chem. 2022 44(3), 381
     doi.org/10.1002/jcc.26942

List of suggested additional citations. These are papers that are important in the 'surrounding' of 
of this run, or papers that preceded the highly important papers. If you like your results we are grateful for a citation.

  1. Izsak, R.; Neese, F.
     An overlap fitted chain of spheres exchange method
     J. Chem. Phys. 2011 135 , 144105
     doi.org/10.1063/1.3646921
  2. Izsak, R.; Hansen, A.; Neese, F.
     The resolution of identity and chain of spheres approximations for the LPNO-CCSD singles Fock term
     Molec. Phys. 2012 110 , 2413-2417
     doi.org/10.1080/00268976.2012.687466
  3. Neese, F.
     The ORCA program system
     WIRES Comput. Molec. Sci. 2012 2(1), 73-78
     doi.org/10.1002/wcms.81
  4. Izsak, R.; Neese, F.; Klopper, W.
     Robust fitting techniques in the chain of spheres approximation to the Fock exchange: The role of the complementary space
     J. Chem. Phys. 2013 139 , 
     doi.org/10.1063/1.4819264
  5. Neese, F.
     Software update: the ORCA program system, version 4.0
     WIRES Comput. Molec. Sci. 2018 8(1), 1-6
     doi.org/10.1002/wcms.1327
  6. Neese, F.; Wennmohs, F.; Becker, U.; Riplinger, C.
     The ORCA quantum chemistry program package
     J. Chem. Phys. 2020 152(22), 224108
     doi.org/10.1063/5.0004608
  7. Neese, F.
     Software update: The ORCA program system—Version 5.0
     WIRES Comput. Molec. Sci. 2022 12(1), e1606
     doi.org/10.1002/wcms.1606

List of optional additional citations

  1. Neese, F.
     Approximate second-order SCF convergence for spin unrestricted wavefunctions
     Chem. Phys. Lett. 2000 325(1-3), 93-98
     doi.org/10.1016/s0009-2614(00)00662-x

Timings for individual modules:

Sum of individual times          ...       56.819 sec (=   0.947 min)
Startup calculation              ...        2.157 sec (=   0.036 min)   3.8 %
SCF iterations                   ...       38.922 sec (=   0.649 min)  68.5 %
SCF Response                     ...       15.341 sec (=   0.256 min)  27.0 %
Property calculations            ...        0.400 sec (=   0.007 min)   0.7 %
                             ****ORCA TERMINATED NORMALLY****
TOTAL RUN TIME: 0 days 0 hours 0 minutes 57 seconds 292 msec
