[Molden Format]
[Title]
 Molden file created by orca_2mkl for BaseName=/kaggle/working/His-2/His_InterFrag

[Atoms] AU
N    1   7         -0.5931170033        -2.7075523615         0.6383324805 
C    2   6          2.0748833902        -3.1114643151         1.2464104456 
C    3   6          2.5146623459        -5.8792063437         1.8633833516 
O    4   8          1.1026608683        -7.2073361063         3.1127379905 
C    5   6          2.7653874299        -1.4943122788         3.5939510814 
C    6   6          5.3946276507        -1.8813244115         4.5366844270 
N    7   7          5.9843979490        -3.7624636299         6.3276969368 
C    8   6          7.5442175842        -0.6158976518         3.9860125624 
C    9   6          8.6383765746        -3.7620516696         6.7761043820 
N   10   7          9.5515470446        -1.6335964332         5.3984165516 
O   11   8          4.7364133615        -6.7152476416         0.9410722763 
H   12   1         -0.9760038639        -3.5654974750        -1.0422217574 
H   13   1         -0.8265907774        -0.8233631252         0.3186645180 
H   14   1          3.3813153173        -2.6030523960        -0.2810306220 
H   15   1          2.4987886463         0.4850775808         3.0569400470 
H   16   1          1.3981422261        -1.9307048451         5.0859238792 
H   17   1          5.0086926618        -5.4077404603         6.3708545023 
H   18   1          7.7946459812         1.0358042474         2.8131767141 
H   19   1          9.6513699379        -5.5511914609         6.5700769902 
H   20   1         11.3094572218        -1.6924614023         4.6439585104 
H   21   1          4.9749629400        -8.4506662983         1.5136347285 
[GTO]
  1 0
s   6 1.0 
     4173.5110000000         0.6790079572
      627.4579000000         1.2504643275
      142.9021000000         2.0203691378
       40.2343300000         2.6442129843
       12.8202100000         2.2650039968
        4.3904370000         0.7791872309
s   3 1.0 
       11.6263580000        -0.5158738103
        2.7162800000        -0.2550239186
        0.7722180000         0.6727344163
p   3 1.0 
       11.6263580000         2.0680595460
        2.7162800000         1.6100106206
        0.7722180000         0.7644899877
s   1 1.0 
        0.2120313000         0.2226947990
p   1 1.0 
        0.2120313000         0.2050879094
d   1 1.0 
        0.8000000000         1.9292013661

  2 0
s   6 1.0 
     3047.5249000000         0.5363343823
      457.3695100000         0.9894506076
      103.9486900000         1.5972822308
       29.2101550000         2.0791870615
        9.2866630000         1.7741742532
        3.1639270000         0.6125798260
s   3 1.0 
        7.8682724000        -0.3995563516
        1.8812885000        -0.1841552393
        0.5442493000         0.5163903794
p   3 1.0 
        7.8682724000         1.2960827175
        1.8812885000         0.9937536282
        0.5442493000         0.4959527138
s   1 1.0 
        0.1687144000         0.1876178721
p   1 1.0 
        0.1687144000         0.1541275509
d   1 1.0 
        0.8000000000         1.9292013661

  3 0
s   6 1.0 
     3047.5249000000         0.5363343823
      457.3695100000         0.9894506076
      103.9486900000         1.5972822308
       29.2101550000         2.0791870615
        9.2866630000         1.7741742532
        3.1639270000         0.6125798260
s   3 1.0 
        7.8682724000        -0.3995563516
        1.8812885000        -0.1841552393
        0.5442493000         0.5163903794
p   3 1.0 
        7.8682724000         1.2960827175
        1.8812885000         0.9937536282
        0.5442493000         0.4959527138
s   1 1.0 
        0.1687144000         0.1876178721
p   1 1.0 
        0.1687144000         0.1541275509
d   1 1.0 
        0.8000000000         1.9292013661

  4 0
s   6 1.0 
     5484.6717000000         0.8317352088
      825.2349500000         1.5308074829
      188.0469600000         2.4771490916
       52.9645000000         3.2562802462
       16.8975700000         2.7928936336
        5.7996353000         0.9549376963
s   3 1.0 
       15.5396160000        -0.6179336976
        3.5999336000        -0.2757210088
        1.0137618000         0.8142076427
p   3 1.0 
       15.5396160000         3.1169455889
        3.5999336000         2.4014372483
        1.0137618000         1.0543605133
s   1 1.0 
        0.2700058000         0.2669561389
p   1 1.0 
        0.2700058000         0.2774319373
d   1 1.0 
        0.8000000000         1.9292013661

  5 0
s   6 1.0 
     3047.5249000000         0.5363343823
      457.3695100000         0.9894506076
      103.9486900000         1.5972822308
       29.2101550000         2.0791870615
        9.2866630000         1.7741742532
        3.1639270000         0.6125798260
s   3 1.0 
        7.8682724000        -0.3995563516
        1.8812885000        -0.1841552393
        0.5442493000         0.5163903794
p   3 1.0 
        7.8682724000         1.2960827175
        1.8812885000         0.9937536282
        0.5442493000         0.4959527138
s   1 1.0 
        0.1687144000         0.1876178721
p   1 1.0 
        0.1687144000         0.1541275509
d   1 1.0 
        0.8000000000         1.9292013661

  6 0
s   6 1.0 
     3047.5249000000         0.5363343823
      457.3695100000         0.9894506076
      103.9486900000         1.5972822308
       29.2101550000         2.0791870615
        9.2866630000         1.7741742532
        3.1639270000         0.6125798260
s   3 1.0 
        7.8682724000        -0.3995563516
        1.8812885000        -0.1841552393
        0.5442493000         0.5163903794
p   3 1.0 
        7.8682724000         1.2960827175
        1.8812885000         0.9937536282
        0.5442493000         0.4959527138
s   1 1.0 
        0.1687144000         0.1876178721
p   1 1.0 
        0.1687144000         0.1541275509
d   1 1.0 
        0.8000000000         1.9292013661

  7 0
s   6 1.0 
     4173.5110000000         0.6790079572
      627.4579000000         1.2504643275
      142.9021000000         2.0203691378
       40.2343300000         2.6442129843
       12.8202100000         2.2650039968
        4.3904370000         0.7791872309
s   3 1.0 
       11.6263580000        -0.5158738103
        2.7162800000        -0.2550239186
        0.7722180000         0.6727344163
p   3 1.0 
       11.6263580000         2.0680595460
        2.7162800000         1.6100106206
        0.7722180000         0.7644899877
s   1 1.0 
        0.2120313000         0.2226947990
p   1 1.0 
        0.2120313000         0.2050879094
d   1 1.0 
        0.8000000000         1.9292013661

  8 0
s   6 1.0 
     3047.5249000000         0.5363343823
      457.3695100000         0.9894506076
      103.9486900000         1.5972822308
       29.2101550000         2.0791870615
        9.2866630000         1.7741742532
        3.1639270000         0.6125798260
s   3 1.0 
        7.8682724000        -0.3995563516
        1.8812885000        -0.1841552393
        0.5442493000         0.5163903794
p   3 1.0 
        7.8682724000         1.2960827175
        1.8812885000         0.9937536282
        0.5442493000         0.4959527138
s   1 1.0 
        0.1687144000         0.1876178721
p   1 1.0 
        0.1687144000         0.1541275509
d   1 1.0 
        0.8000000000         1.9292013661

  9 0
s   6 1.0 
     3047.5249000000         0.5363343823
      457.3695100000         0.9894506076
      103.9486900000         1.5972822308
       29.2101550000         2.0791870615
        9.2866630000         1.7741742532
        3.1639270000         0.6125798260
s   3 1.0 
        7.8682724000        -0.3995563516
        1.8812885000        -0.1841552393
        0.5442493000         0.5163903794
p   3 1.0 
        7.8682724000         1.2960827175
        1.8812885000         0.9937536282
        0.5442493000         0.4959527138
s   1 1.0 
        0.1687144000         0.1876178721
p   1 1.0 
        0.1687144000         0.1541275509
d   1 1.0 
        0.8000000000         1.9292013661

 10 0
s   6 1.0 
     4173.5110000000         0.6790079572
      627.4579000000         1.2504643275
      142.9021000000         2.0203691378
       40.2343300000         2.6442129843
       12.8202100000         2.2650039968
        4.3904370000         0.7791872309
s   3 1.0 
       11.6263580000        -0.5158738103
        2.7162800000        -0.2550239186
        0.7722180000         0.6727344163
p   3 1.0 
       11.6263580000         2.0680595460
        2.7162800000         1.6100106206
        0.7722180000         0.7644899877
s   1 1.0 
        0.2120313000         0.2226947990
p   1 1.0 
        0.2120313000         0.2050879094
d   1 1.0 
        0.8000000000         1.9292013661

 11 0
s   6 1.0 
     5484.6717000000         0.8317352088
      825.2349500000         1.5308074829
      188.0469600000         2.4771490916
       52.9645000000         3.2562802462
       16.8975700000         2.7928936336
        5.7996353000         0.9549376963
s   3 1.0 
       15.5396160000        -0.6179336976
        3.5999336000        -0.2757210088
        1.0137618000         0.8142076427
p   3 1.0 
       15.5396160000         3.1169455889
        3.5999336000         2.4014372483
        1.0137618000         1.0543605133
s   1 1.0 
        0.2700058000         0.2669561389
p   1 1.0 
        0.2700058000         0.2774319373
d   1 1.0 
        0.8000000000         1.9292013661

 12 0
s   3 1.0 
       18.7311370000         0.2149354183
        2.8253937000         0.3645711272
        0.6401217000         0.4150514277
s   1 1.0 
        0.1612778000         0.1813806839
p   1 1.0 
        1.1000000000         1.6057611426

 13 0
s   3 1.0 
       18.7311370000         0.2149354183
        2.8253937000         0.3645711272
        0.6401217000         0.4150514277
s   1 1.0 
        0.1612778000         0.1813806839
p   1 1.0 
        1.1000000000         1.6057611426

 14 0
s   3 1.0 
       18.7311370000         0.2149354183
        2.8253937000         0.3645711272
        0.6401217000         0.4150514277
s   1 1.0 
        0.1612778000         0.1813806839
p   1 1.0 
        1.1000000000         1.6057611426

 15 0
s   3 1.0 
       18.7311370000         0.2149354183
        2.8253937000         0.3645711272
        0.6401217000         0.4150514277
s   1 1.0 
        0.1612778000         0.1813806839
p   1 1.0 
        1.1000000000         1.6057611426

 16 0
s   3 1.0 
       18.7311370000         0.2149354183
        2.8253937000         0.3645711272
        0.6401217000         0.4150514277
s   1 1.0 
        0.1612778000         0.1813806839
p   1 1.0 
        1.1000000000         1.6057611426

 17 0
s   3 1.0 
       18.7311370000         0.2149354183
        2.8253937000         0.3645711272
        0.6401217000         0.4150514277
s   1 1.0 
        0.1612778000         0.1813806839
p   1 1.0 
        1.1000000000         1.6057611426

 18 0
s   3 1.0 
       18.7311370000         0.2149354183
        2.8253937000         0.3645711272
        0.6401217000         0.4150514277
s   1 1.0 
        0.1612778000         0.1813806839
p   1 1.0 
        1.1000000000         1.6057611426

 19 0
s   3 1.0 
       18.7311370000         0.2149354183
        2.8253937000         0.3645711272
        0.6401217000         0.4150514277
s   1 1.0 
        0.1612778000         0.1813806839
p   1 1.0 
        1.1000000000         1.6057611426

 20 0
s   3 1.0 
       18.7311370000         0.2149354183
        2.8253937000         0.3645711272
        0.6401217000         0.4150514277
s   1 1.0 
        0.1612778000         0.1813806839
p   1 1.0 
        1.1000000000         1.6057611426

 21 0
s   3 1.0 
       18.7311370000         0.2149354183
        2.8253937000         0.3645711272
        0.6401217000         0.4150514277
s   1 1.0 
        0.1612778000         0.1813806839
p   1 1.0 
        1.1000000000         1.6057611426

[5D]
[7F]
[9G]
[MO]
 Sym=     1a
 Ene= -1.91961511860093E+01
 Spin= Alpha
 Occup= 1.000000
  1       0.000019524594
  2       0.000317519980
  3       0.000082059591
  4      -0.000180733246
  5       0.000071977229
  6       0.000583949095
  7       0.000040398145
  8       0.001368423327
  9       0.000420825163
 10       0.000061959794
 11       0.000071867976
 12      -0.000002345497
 13      -0.000014184158
 14       0.000083254986
 15       0.000060847461
 16       0.000925324513
 17      -0.000024195067
 18      -0.000206318336
 19       0.000227635001
 20      -0.002479526022
 21       0.002776914870
 22      -0.000339405951
 23      -0.003264616452
 24      -0.000081827010
 25       0.000101057115
 26       0.000074182343
 27      -0.000005883151
 28      -0.000282212332
 29      -0.000024644209
 30       0.000062830179
 31      -0.000519599774
 32       0.000343360585
 33       0.000366662573
 34      -0.008318189406
 35      -0.010637567627
 36       0.003558194074
 37       0.004210500050
 38       0.000177995483
 39      -0.000048925270
 40       0.000195544643
 41       0.000306119052
 42       0.000202103526
 43       0.000548985010
 44       0.000574350969
 45      -0.000032722911
 46       0.000172296469
 47      -0.000058426379
 48      -0.002506543068
 49       0.001328273486
 50      -0.002096194982
 51       0.000158334717
 52       0.000093542152
 53      -0.000160965546
 54       0.000265819931
 55       0.000507182350
 56       0.000027980438
 57      -0.000018593171
 58      -0.000162584469
 59      -0.000123663023
 60      -0.000057222381
 61      -0.000071646842
 62       0.000667126924
 63      -0.001766085914
 64      -0.000282584821
 65      -0.001159267171
 66      -0.000037196474
 67       0.000054804559
 68       0.000113482146
 69      -0.000010627081
 70       0.000075344815
 71      -0.000037371556
 72      -0.000443874454
 73       0.000152842110
 74       0.000082862005
 75       0.000014006735
 76       0.001050424509
 77      -0.002445163995
 78      -0.000692695419
 79      -0.000147490450
 80       0.000006426494
 81       0.000048344084
 82       0.000034755558
 83      -0.000035099233
 84      -0.000033357275
 85      -0.000002357620
 86      -0.000069748210
 87      -0.000031837149
 88       0.000024674451
 89       0.000080862191
 90      -0.000146147429
 91       0.000710981045
 92      -0.000005642665
 93      -0.000103872145
 94       0.000023200491
 95      -0.000048592729
 96      -0.000003993680
 97      -0.000033765940
 98       0.000030812670
 99      -0.000009645054
100      -0.000045925460
101      -0.000043903525
102      -0.000027434723
103       0.000003945814
104       0.001524084187
105      -0.000455342387
106      -0.000520549501
107       0.000435201414
108      -0.000011804396
109      -0.000014139723
110      -0.000025362500
111       0.000009684041
112       0.000026062302
113       0.000001824185
114       0.000022092821
115       0.000033583485
116      -0.000014552353
117      -0.000002484982
118      -0.000372659706
119       0.000145820140
120       0.000295994333
121       0.000063423755
122       0.000004327018
123      -0.000017276196
124      -0.000016933485
125      -0.000000544281
126      -0.000000523984
127       0.000001642450
128       0.000016751814
129       0.000002124360
130      -0.000002163161
131       0.000020056349
132      -0.000267874937
133       0.000101398024
134       0.000004330190
135      -0.000094905412
136      -0.000006540817
137      -0.000001165339
138       0.000005969454
139       0.000004557553
140       0.000002461501
141      -0.995106358620
142      -0.030347721603
143       0.001301354455
144       0.001053014122
145      -0.001163284942
146       0.021962606686
147      -0.006243756302
148       0.001832650219
149       0.002864186355
150       0.000079227331
151      -0.000535747841
152       0.000466765423
153       0.000969092958
154      -0.000097671046
155       0.000150304719
156       0.000354322513
157       0.000006173115
158      -0.000070129562
159       0.000050864646
160      -0.000170534685
161      -0.000688099554
162       0.000025684461
163       0.000047307912
164      -0.000034012073
165      -0.000063433494
166      -0.001561032031
167       0.000046532760
168      -0.000053927270
169       0.000016071947
170      -0.000072921506
171      -0.000096775692
172       0.000062247860
173       0.000004330197
174       0.000028994064
175       0.000064609078
176      -0.000648223960
177      -0.000023347325
178       0.000033625810
179       0.000032154167
180      -0.000031238459
181       0.000546530296
182      -0.000019669142
183       0.000016694670
184      -0.000070515059
185      -0.000007335319
186       0.000201563601
187       0.000007033890
188      -0.000003797395
189      -0.000008069899
190       0.000048285038
191       0.000145502962
192      -0.000014089844
193       0.000003302650
194      -0.000001074450
195      -0.000014406852
196      -0.000017581193
197       0.000002763541
198       0.000004658044
199       0.000002457267
200       0.000430917076
201      -0.000415360369
202       0.000018710554
203       0.001619369811
204      -0.000667016825
 Sym=     1a
 Ene= -1.91338428053172E+01
 Spin= Alpha
 Occup= 1.000000
  1       0.000027852588
  2       0.000279492274
  3       0.000033787422
  4      -0.000147262959
  5      -0.000016548169
  6       0.000396844202
  7      -0.000034987714
  8       0.001419666082
  9       0.000437739218
 10       0.000041702810
 11       0.000024948740
 12       0.000022619089
 13       0.000009954088
 14       0.000149244946
 15      -0.000082681105
 16      -0.000806342732
 17      -0.000080903081
 18       0.000303385788
 19       0.000081689915
 20       0.006685091829
 21       0.004475003829
 22      -0.003504863023
 23      -0.001678462973
 24      -0.000062956101
 25      -0.000010136355
 26       0.000280364996
 27       0.000168838511
 28      -0.000435478189
 29       0.000294711465
 30       0.000719759695
 31      -0.000032355855
 32      -0.000209701755
 33      -0.000019693073
 34       0.007437276990
 35      -0.010004742932
 36      -0.009515670030
 37       0.009433778420
 38      -0.000025637782
 39       0.000455410640
 40       0.000347789014
 41      -0.000187642022
 42      -0.000511260250
 43       0.995207396960
 44       0.030926177202
 45       0.001439050642
 46       0.001254343078
 47      -0.001241199747
 48      -0.027338779766
 49      -0.005062179978
 50      -0.004674667544
 51       0.004380426791
 52       0.000031066555
 53       0.000222348784
 54       0.000193512699
 55      -0.000035870122
 56      -0.000258527687
 57       0.000094150428
 58       0.000867155887
 59      -0.000017411610
 60      -0.000197836912
 61       0.000038865764
 62      -0.003027825195
 63      -0.002135675207
 64       0.002202452977
 65      -0.000945489265
 66      -0.000024908020
 67       0.000084676800
 68      -0.000047335491
 69      -0.000018503064
 70       0.000057001708
 71      -0.000056648027
 72      -0.000311887378
 73      -0.000010788518
 74       0.000009048233
 75      -0.000011494465
 76       0.003965564391
 77      -0.001809966594
 78      -0.001436303710
 79       0.000424306802
 80      -0.000042399062
 81       0.000080964920
 82      -0.000100991315
 83       0.000018140431
 84       0.000024387661
 85       0.000011804832
 86       0.000093259749
 87      -0.000020831163
 88       0.000010295823
 89      -0.000041604123
 90      -0.000930725292
 91       0.000396187788
 92      -0.000926822881
 93       0.000825983580
 94      -0.000064228899
 95      -0.000043945691
 96       0.000087695297
 97       0.000029346912
 98       0.000080344436
 99       0.000005352143
100       0.000025939546
101      -0.000003179359
102      -0.000003504746
103      -0.000002330632
104       0.000294740207
105      -0.000374040145
106       0.000179764862
107      -0.000147264272
108       0.000007765848
109      -0.000012521625
110      -0.000003200957
111      -0.000004523221
112      -0.000013233592
113      -0.000004424331
114      -0.000068318458
115       0.000021212573
116       0.000021813419
117       0.000010166405
118      -0.000070129743
119       0.000100875533
120       0.000089933448
121      -0.000148104706
122       0.000006363243
123       0.000027748919
124       0.000001844123
125      -0.000006300418
126      -0.000030488373
127      -0.000007790305
128      -0.000069434662
129       0.000015955614
130      -0.000008357865
131      -0.000004684734
132       0.000331321211
133      -0.000288437975
134       0.000089450920
135      -0.000075002327
136      -0.000005082488
137       0.000007645775
138      -0.000015232443
139       0.000023672253
140       0.000005556249
141       0.000502681549
142      -0.000610497348
143       0.000130454317
144      -0.000219587106
145       0.000069615578
146       0.003465006157
147      -0.000679491250
148       0.002658564933
149      -0.000860535998
150      -0.000180471499
151       0.000251211012
152       0.000054128758
153      -0.000251300499
154      -0.000425083844
155       0.000297728736
156       0.000110598073
157      -0.000005645382
158      -0.000056984488
159       0.000013756199
160      -0.000140422429
161      -0.000336176250
162       0.000090271277
163      -0.000000956071
164      -0.000042753664
165      -0.000632526449
166      -0.001235664474
167      -0.000041392032
168      -0.000039976270
169      -0.000022175959
170      -0.000103576523
171      -0.000639806693
172       0.000087663538
173       0.000010714884
174      -0.000056823244
175       0.000311577317
176      -0.000017815303
177       0.000079220197
178      -0.000094786472
179       0.000009801897
180       0.000052813487
181      -0.001063060076
182       0.000006671984
183      -0.000046453526
184       0.000085285949
185      -0.000038176540
186      -0.000033569562
187       0.000006852857
188      -0.000006602059
189       0.000002054195
190      -0.000025685271
191       0.000055092872
192      -0.000003031166
193      -0.000005155436
194       0.000013718002
195       0.000011323565
196       0.000073234249
197       0.000005399274
198      -0.000001078829
199       0.000003543057
200       0.000130049842
201       0.000166247610
202       0.000176724499
203      -0.000047643263
204      -0.000060131673
 Sym=     1a
 Ene= -1.43404963980889E+01
 Spin= Alpha
 Occup= 1.000000
  1       0.000038293704
  2       0.000013008536
  3       0.000008251046
  4       0.000002341995
  5       0.000002860527
  6       0.000156274084
  7       0.000064887620
  8      -0.000124399155
  9       0.000083141703
 10       0.000007309074
 11       0.000016530047
 12      -0.000001875747
 13      -0.000000584484
 14      -0.000016637011
 15      -0.000004353866
 16      -0.000016524906
 17      -0.000031789226
 18      -0.000030938991
 19       0.000036268348
 20       0.000196761855
 21       0.000620570158
 22       0.000417064795
 23      -0.000294335669
 24      -0.000010969722
 25       0.000003036749
 26       0.000012944469
 27       0.000005391043
 28       0.000025109321
 29      -0.000001898120
 30       0.000016239828
 31       0.000005776151
 32       0.000004506543
 33      -0.000014442481
 34       0.000397027530
 35      -0.000309031603
 36      -0.000076728411
 37       0.000161347942
 38      -0.000011984574
 39      -0.000008469354
 40      -0.000006779814
 41       0.000003765773
 42      -0.000011377854
 43       0.000003279686
 44       0.000047646264
 45      -0.000006765099
 46      -0.000007173187
 47      -0.000009666044
 48      -0.000337524928
 49      -0.000039478121
 50      -0.000046198305
 51       0.000088053507
 52      -0.000007121900
 53       0.000003158304
 54       0.000001290216
 55       0.000000685843
 56      -0.000003698857
 57       0.000015673872
 58       0.000220473663
 59       0.000171921354
 60       0.000058448744
 61      -0.000054274809
 62       0.001184369858
 63      -0.000183376092
 64      -0.000405875243
 65       0.000781087947
 66       0.000004678477
 67      -0.000040228615
 68      -0.000007283743
 69       0.000025388959
 70       0.000033168142
 71      -0.000028930359
 72      -0.000006760203
 73       0.000220781934
 74       0.000246570114
 75      -0.000141234570
 76       0.006957705027
 77       0.004679602867
 78      -0.000728177711
 79       0.001595682127
 80      -0.000038583730
 81      -0.000101882619
 82       0.000025938420
 83       0.000057711570
 84       0.000113768409
 85       0.005368102840
 86       0.000379740036
 87       0.000192447147
 88       0.000048254134
 89       0.000052832193
 90      -0.000249193970
 91       0.000940512458
 92      -0.001016230020
 93       0.000773266515
 94       0.000004386241
 95       0.000077094844
 96       0.000245538103
 97       0.000152444008
 98      -0.000169642568
 99       0.000000141051
100       0.000775809162
101       0.000089305447
102      -0.000086278837
103       0.000120965650
104      -0.013807666869
105      -0.002062184667
106       0.006554552867
107      -0.005833604415
108       0.000143264582
109       0.000593401616
110       0.000066655740
111       0.000291584607
112      -0.000537416821
113      -0.000019028974
114       0.000616521696
115      -0.000106728720
116      -0.000084157563
117       0.000221005032
118      -0.009496458906
119       0.000360264457
120      -0.003272661747
121       0.002949625307
122       0.000007868520
123      -0.000164849283
124      -0.000385374422
125      -0.000329077679
126       0.000459751010
127      -0.995212565907
128      -0.033643086614
129      -0.000059969824
130       0.000749724724
131       0.000944696829
132       0.027786882526
133      -0.007344006934
134      -0.002401563598
135      -0.001079483336
136       0.000176403660
137       0.000829523638
138      -0.000254352168
139      -0.000754885800
140       0.000122973078
141       0.000001406511
142       0.000016211959
143      -0.000013300139
144      -0.000001282025
145       0.000001985760
146       0.000004190988
147       0.000044346473
148       0.000030444247
149      -0.000028428283
150       0.000008464237
151       0.000013505860
152      -0.000005814650
153      -0.000003765166
154      -0.000002458983
155       0.000002993224
156       0.000004791553
157       0.000003420399
158       0.000004110501
159      -0.000005426427
160       0.000013103903
161       0.000067439297
162      -0.000001100981
163      -0.000004409895
164       0.000001599741
165      -0.000084185834
166      -0.000336933365
167       0.000009463533
168      -0.000007773520
169      -0.000012834861
170       0.000154153927
171      -0.000026808780
172       0.000039278382
173       0.000005448623
174      -0.000025452290
175      -0.000138294177
176      -0.000353377933
177       0.000004999571
178      -0.000009862832
179       0.000038707496
180       0.000037932176
181      -0.000327785759
182      -0.000065439810
183       0.000081505599
184      -0.000001490700
185       0.000088950595
186      -0.002070952404
187       0.000328532262
188      -0.000138113003
189       0.000235677964
190       0.000514310471
191       0.000045603993
192      -0.000016396439
193       0.000252679901
194      -0.000234696537
195       0.001485441645
196      -0.000920018915
197      -0.001793025016
198       0.000257796111
199       0.001051833342
200      -0.000003402022
201       0.000044022358
202      -0.000006928679
203       0.000005753419
204      -0.000001694591
 Sym=     1a
 Ene= -1.43395925235522E+01
 Spin= Alpha
 Occup= 1.000000
  1       0.000115725937
  2       0.000049564597
  3       0.000019988576
  4       0.000003428544
  5       0.000043260561
  6       0.000347850283
  7       0.000068137670
  8      -0.000338065798
  9      -0.000149292821
 10       0.000006677920
 11       0.000000308936
 12      -0.000000170764
 13       0.000000420331
 14      -0.000051171076
 15      -0.000031218287
 16      -0.000254730308
 17      -0.000131179256
 18      -0.000034841034
 19       0.000032762904
 20       0.001265735901
 21       0.001669536595
 22       0.001449020727
 23       0.000093276498
 24       0.000005921211
 25       0.000021466076
 26       0.000044382527
 27      -0.000040040512
 28       0.000051373610
 29      -0.000010212464
 30      -0.000088970320
 31       0.000053542756
 32       0.000018224239
 33       0.000047960499
 34       0.000324064361
 35      -0.000848851828
 36       0.000412150943
 37      -0.000203559624
 38       0.000005532824
 39       0.000076427138
 40       0.000032666210
 41       0.000011221671
 42      -0.000013084966
 43      -0.000002407010
 44      -0.000038261893
 45      -0.000031704795
 46       0.000008811568
 47      -0.000042584966
 48       0.000006364841
 49       0.000248943744
 50      -0.000043660594
 51       0.000136995400
 52      -0.000035432628
 53      -0.000017713888
 54      -0.000001969354
 55       0.000040347977
 56       0.000030161344
 57       0.000075680516
 58       0.000743292595
 59       0.000121810832
 60       0.000004398864
 61      -0.000022931681
 62      -0.006544748788
 63      -0.003511401034
 64      -0.001303725718
 65       0.001691312576
 66       0.000103263397
 67       0.000135445589
 68      -0.000087310239
 69      -0.000092555428
 70      -0.000225568679
 71      -0.000029278432
 72       0.000575491426
 73       0.000025784445
 74      -0.000205129954
 75       0.000159851655
 76      -0.010998571188
 77      -0.007881109650
 78       0.007781750734
 79      -0.008411059682
 80       0.000277031010
 81       0.000157780935
 82      -0.000324341893
 83      -0.000311085886
 84      -0.000184989516
 85      -0.995255720589
 86      -0.034110768369
 87      -0.000204663577
 88       0.000587392531
 89       0.000897208568
 90       0.031164363171
 91       0.004025473093
 92       0.006163242534
 93      -0.005439296667
 94       0.000522518448
 95       0.000111221741
 96      -0.000350951943
 97       0.000521854098