
                                 *****************
                                 * O   R   C   A *
                                 *****************

                                            #,                                       
                                            ###                                      
                                            ####                                     
                                            #####                                    
                                            ######                                   
                                           ########,                                 
                                     ,,################,,,,,                         
                               ,,#################################,,                 
                          ,,##########################################,,             
                       ,#########################################, ''#####,          
                    ,#############################################,,   '####,        
                  ,##################################################,,,,####,       
                ,###########''''           ''''###############################       
              ,#####''   ,,,,##########,,,,          '''####'''          '####       
            ,##' ,,,,###########################,,,                        '##       
           ' ,,###''''                  '''############,,,                           
         ,,##''                                '''############,,,,        ,,,,,,###''
      ,#''                                            '''#######################'''  
     '                                                          ''''####''''         
             ,#######,   #######,   ,#######,      ##                                
            ,#'     '#,  ##    ##  ,#'     '#,    #''#        ,####,    ,#,          
            ##       ##  ##   ,#'  ##            #'  '#       #'       ,# #          
            ##       ##  #######   ##           ,######,      #####,      #          
            '#,     ,#'  ##    ##  '#,     ,#' ,#      #,     #,   #      #          
             '#######'   ##     ##  '#######'  #'      '#     '####' #    #          



                #########################################################
                #                        -***-                          #
                #          Department of theory and spectroscopy        #
                #                                                       #
                #                      Frank Neese                      #
                #                                                       #
                #     Directorship, Architecture, Infrastructure        #
                #                    SHARK, DRIVERS                     #
                #        Core code/Algorithms in most modules           #
                #                                                       #
                #        Max Planck Institute fuer Kohlenforschung      #
                #                Kaiser Wilhelm Platz 1                 #
                #                 D-45470 Muelheim/Ruhr                 #
                #                      Germany                          #
                #                                                       #
                #                  All rights reserved                  #
                #                        -***-                          #
                #########################################################


                         Program Version 6.1.1  -  RELEASE   -
                                (GIT: $487d211c$)
                          ($2025-11-21 10:33:24 +0100$)
                                                                         
                                  - NO-DMRG VERSION -                    
                                                                         


 With contributions from (in alphabetic order):
[Max-Planck-Institut fuer Kohlenforschung]                               
  Daniel Aravena         : Magnetic Suceptibility                        
  Michael Atanasov       : Ab Initio Ligand Field Theory (pilot matlab implementation)
  Alexander A. Auer      : GIAO ZORA, VPT2 properties, NMR spectrum      
  Ute Becker             : All parallelization in ORCA, NUMFREQ, NUMCALC 
  Giovanni Bistoni       : ED, misc. LED, open-shell LED, HFLD           
  Dmytro Bykov           : pre 5.0 version of the SCF Hessian            
  Marcos Casanova-Páez   : Triplet and SCS-CIS(D). UHF-(DLPNO)-IP/EA/STEOM-CCSD. UHF-CVS-IP/STEOM-CCSD   
  Vijay G. Chilkuri      : MRCI spin determinant printing, contributions to CSF-ICE 
  Pauline Colinet        : FMM embedding                                 
  Dipayan Datta          : RHF DLPNO-CCSD density                        
  Achintya Kumar Dutta   : EOM-CC, STEOM-CC                              
  Nicolas Foglia         : Exact transition moments, OPA infrastructure, MCD improvements    
  Dmitry Ganyushin       : Spin-Orbit,Spin-Spin,Magnetic field MRCI      
  Miquel Garcia-Rates    : C-PCM and meta-GGA Hessian, CCSD/C-PCM, Gaussian charge scheme 
  Tiago L. C. Gouveia    : GS-ROHF, GS-ROCIS                             
  Yang Guo               : DLPNO-NEVPT2, F12-NEVPT2, CIM, IAO-localization        
  Andreas Hansen         : Spin unrestricted coupled pair/coupled cluster methods 
  Ingolf Harden          : AUTO-CI MPn and infrastructure                
  Benjamin Helmich-Paris : MC-RPA, TRAH-(SCF,CASSCF), AVAS, COSX integrals, SCF dyn. polar., MC-PDFT, srDFT 
  Lee Huntington         : MR-EOM, pCC                                   
  Robert Izsak           : Overlap fitted RIJCOSX, COSX-SCS-MP3, EOM     
  Riya Kayal             : Wick's Theorem for AUTO-CI, AUTO-CI UHF-CCSDT 
  Emily Kempfer          : AUTO-CI RHF CISDT and CCSDT, approximate NEVPT4
  Christian Kollmar      : KDIIS, OOCD, Brueckner-CCSD(T), CCSD density, CASPT2, CASPT2-K, improved NEVPT2 
  Axel Koslowski         : Symmetry handling                             
  Simone Kossmann        : meta-GGA functionals, TD-DFT gradient, OOMP2, (MP2 Hessian; deprecated post 5.0) 
  Lucas Lang             : DCDCAS, Hyperfine gauge corrections, ICE-SOC+SSC
  Marvin Lechner         : AUTO-CI (C++ implementation), FIC-MRCC        
  Spencer Leger          : CASSCF response                               
  Dagmar Lenk            : GEPOL surface, SMD, ORCA-2-JSON               
  Dimitrios Liakos       : Extrapolation schemes; Compound Job, Property file
  Dimitrios Manganas     : Further ROCIS development; embedding schemes. LFT, Crystal Embedding 
  Dimitrios Pantazis     : SARC Basis sets                               
  Anastasios Papadopoulos: AUTO-CI, single reference methods and gradients 
  Taras Petrenko         : pre 6.0 DFT Hessian and TD-DFT gradient,  ECA, NRVS 
  Petra Pikulova         : Analytic Raman intensities                    
  Peter Pinski           : DLPNO-MP2, DLPNO-MP2 Gradient                 
  Shashank Vittal Rao    : ES-AILFT, MagRelax                            
  Christoph Reimann      : Effective Core Potentials                     
  Marius Retegan         : Local ZFS, SOC                                
  Christoph Riplinger    : Optimizer, TS searches, QM/MM, DLPNO-CCSD(T), (RO)-DLPNO pert. Triples 
  Michael Roemelt        : Original ROCIS implementation, recursive CI coupling coefficients
  Masaaki Saitow         : Open-shell DLPNO-CCSD energy and density      
  Barbara Sandhoefer     : DKH picture change effects                    
  Yorick L. A. Schmerwitz: GMF and freeze-and-release deltaSCF, NEB S-IDPP initial path                    
  Kantharuban Sivalingam : CASSCF convergence/infrastructure, NEVPT2, NEVPT3, NEVPT4(SD), FIC-MRCI and CEPA variants
  Bernardo de Souza      : ESD, SOC TD-DFT                               
  Georgi L. Stoychev     : AutoAux, RI-MP2 NMR, DLPNO-MP2 response, X2C  
  Van Anh Tran           : RI-MP2 g-tensors                              
  Willem Van den Heuvel  : Paramagnetic NMR                              
  Zikuan Wang            : NOTCH, Electric field optimization            
  Frank Wennmohs         : Technical directorship and infrastructure     
  Hang Xu                : AUTO-CI-Response properties                   
                                                                         
[FACCTs GmbH]                                                            
  Markus Bursch, Nicolas Foglia, Miquel Garcia-Rates, Ingolf Harden, Hagen Neugebauer, Anastasios Papadopoulos, 
  Christoph Riplinger, Bernardo de Souza, Georgi L. Stoychev                                                    
                                                                 
  APM, various basis sets, CI-OPT, improved COSX, DLPNO-Multilevel,           
  DOCKER, DRACO, updates on ESD, Fragmentator, GOAT, IRC, LR-CPCM, L-BFGS, MBIS, meta-GGA TD-DFT gradient, ML-optimized integration grids, 
  MM, NACMEs, nearIR, NEB, NEB-TS, NL-DFT gradient (VV10), 2- and 3-layer-ONIOM, interface openCOSMO-RS, QMMM,   
  Crystal-QMMM, RESP, rigid body optimization, SF, symmetry and pop. for TD-DFT, various functionals, SOLVATOR                                   
                                                                         
[Other institutions]                                                     
  V. Asgeirsson          : NEB                                           
  Christoph Bannwarth    : sTDA-DFT, sTD-DFT, PBEh-3c, B97-3c, D3        
  Giovanni Bistoni       : ETS/NOCV, ADLD/ADEX, COVALED                  
  Martin Brehm           : Molecular dynamics                            
  Ronald Cardenas        : ETS/NOCV                                      
  Martina Colucci        : COVALED                                       
  Sebastian Ehlert       : rSCAN, r2SCAN, r2SCAN-3c, D4, dhf basis sets  
  Marvin Friede          : D4 for Fr, Ra, Ac-Lr                          
  Lars Goerigk           : TD-DFT with DH, B97 family of functionals     
  Stefan Grimme          : VdW corrections, initial TS optimization, DFT functionals, gCP, sTDA/sTD-DF 
  Waldemar Hujo          : DFT-NL                                        
  H. Jonsson             : NEB                                           
  Holger Kruse           : gCP                                           
  Marcel Mueller         : wB97X-3c, vDZP basis set                      
  Hagen Neugebauer       : wr2SCAN, Native XTB                           
  Gianluca Regni         : ADLD/ADEX                                     
  Tobias Risthaus        : pre 6.0 range-separated hybrid DFT and stability analysis
  Lukas Wittmann         : regularized MP2, r2SCAN double-hybrids, wr2SCAN        
                                                                         
We gratefully acknowledge several colleagues who have allowed us to      
interface, adapt or use parts of their codes:                            
  Ed Valeev, F. Pavosevic, A. Kumar             : LibInt (2-el integral package), F12 methods 
  Garnet Chan, S. Sharma, J. Yang, R. Olivares  : DMRG                   
  Ulf Ekstrom                                   : XCFun DFT Library      
  Mihaly Kallay                                 : mrcc  (arbitrary order and MRCC methods)
  Frank Weinhold                                : gennbo (NPA and NBO analysis)           
  Simon Mueller                                 : openCOSMO-RS                            
  Christopher J. Cramer and Donald G. Truhlar   : smd solvation model                     
  S Lehtola, MJT Oliveira, MAL Marques          : LibXC Library                           
  Liviu Ungur et al                             : ANISO software                          


 Your calculation uses the libint2 library for the computation of 2-el integrals
 For citations please refer to: http://libint.valeyev.net

 Your ORCA version has been built with support for libXC version: 7.0.0
 For citations please refer to: https://libxc.gitlab.io

 This ORCA versions uses:
   CBLAS   interface :  Fast vector & matrix operations
   LAPACKE interface :  Fast linear algebra routines
   SCALAPACK package :  Parallel linear algebra routines
   Shared memory     :  Shared parallel matrices
   BLAS/LAPACK       :  OpenBLAS 0.3.29  USE64BITINT DYNAMIC_ARCH NO_AFFINITY SkylakeX SINGLE_THREADED
        Core in use  :  SkylakeX
   Copyright (c) 2011-2014, The OpenBLAS Project


  ***********************************
  * Starting time: Sun Mar 22 16:18:31 2026
  * Host name:     7a665de41d2d
  * Process ID:    4842
  * Working dir.:  /kaggle/working
  ***********************************

NOTE: MaxCore=3000 MB was set to SCF,MP2,MDCI,CIPSI,MRCI,RASCI and CIS
      => If you want to overwrite this, your respective input block should be placed after the MaxCore statement
Your calculation utilizes the atom-pairwise dispersion correction
with the Becke-Johnson damping scheme (D3BJ)


Warning: RI is on but no J-basis has been assigned. Assigning Def2/J (nothing to worry about!)
================================================================================

----- Orbital basis set information -----
Your calculation utilizes the basis: 6-31G(d,p)
   H-He, Li-Ne : W. J. Hehre, R. Ditchfield and J.A. Pople, J. Chem. Phys. 56, 2257 (1972).
                 Note: He and Ne are unpublished basis sets taken from the Gaussian program.
                 Note: Li and B from J. D. Dill and J. A. Pople, J. Chem. Phys. 62, 2921 (1975).
   Na - Ar     : M. M. Francl, W. J. Pietro, W. J. Hehre, J. S. Binkley, M. S. Gordon, 
                 D. J. DeFrees and J. A. Pople, J. Chem. Phys. 77, 3654 (1982).
   K - Zn      : V. A. Rassolov, J. A. Pople, M. A. Ratner, and T. L. Windus, J. Chem. Phys. 109, 1223 (1998).

----- AuxJ basis set information -----
Your calculation utilizes the auxiliary basis: def2/J
   H-Rn: F. Weigend, Phys. Chem. Chem. Phys. 8, 1057 (2006).
   Fr-Lr: K. Eichkorn, F. Weigend, O. Treutler, R. Ahlrichs; Theor. Chem. Acc. 97, 119 (1997).

================================================================================
                                        WARNINGS
                       Please study these warnings very carefully!
================================================================================


================================================================================
                                       INPUT FILE
================================================================================
NAME = /kaggle/working/Cha-2/Cha_InterFrag.inp
|  1> 
|  2> !RKS B3LYP 6-31G(d,p) TightSCF D3BJ
|  3> 
|  4> %pal nprocs 2 end
|  5> %maxcore 3000
|  6> 
|  7> %elprop
|  8>   Polar 1      # polarizability via CP-SCF
|  9> end
| 10> 
| 11> %output
| 12>   PrintLevel Normal
| 13>   Print[ P_OrbEn ] 2
| 14> end
| 15> 
| 16> *xyz 0 1
| 17>   O      4.222670    4.014270   -0.014712
| 18>   O      2.162553    3.036464   -0.005418
| 19>   N      5.581126    1.835513    0.012497
| 20>   C      3.172065   -0.974195    0.006665
| 21>   C      1.762964   -1.375719   -0.018955
| 22>   C      4.049299   -2.179320    0.090891
| 23>   C      1.380700   -2.688190   -0.012165
| 24>   C      3.572520   -3.478015    0.091814
| 25>   C      3.327486    0.421827    0.011709
| 26>   C      2.215634   -3.842609    0.031796
| 27>   C      4.155911    1.638742    0.019883
| 28>   C      3.432802    2.839986    0.002477
| 29>   H      5.610951   -1.134996    0.038586
| 30>   H     -0.633266    1.552117    0.133173
| 31>   H      1.037607   -0.570179    0.020147
| 32>   H      5.144791   -2.180808    0.166484
| 33>   H      6.365204   -0.616676    0.009386
| 34>   H      0.185708   -2.411312   -0.056039
| 35>   H      0.272104   -3.245838   -0.034438
| 36>   H      3.673585   -7.245906   -0.065854
| 37>   H      4.284478   -4.294447    0.156287
| 38>   H      2.331153    0.844313    0.010871
| 39>   H      0.014498    1.887595    0.010256
| 40>   H      1.844133   -4.845636    0.043734
| 41>   H      4.011255   -6.934455   -0.651380
| 42>   H      5.664827   -0.185535   -0.013518
| 43>   H      5.902644    2.783077   -0.010996
| 44>   H      6.322665    1.172586    0.048952
| 45>   H      3.556535    4.712247   -0.022135
| 46> 
| 47> *
| 48> 
| 49>                          ****END OF INPUT****
================================================================================

                       ****************************
                       * Single Point Calculation *
                       ****************************

---------------------------------
CARTESIAN COORDINATES (ANGSTROEM)
---------------------------------
  O      4.222670    4.014270   -0.014712
  O      2.162553    3.036464   -0.005418
  N      5.581126    1.835513    0.012497
  C      3.172065   -0.974195    0.006665
  C      1.762964   -1.375719   -0.018955
  C      4.049299   -2.179320    0.090891
  C      1.380700   -2.688190   -0.012165
  C      3.572520   -3.478015    0.091814
  C      3.327486    0.421827    0.011709
  C      2.215634   -3.842609    0.031796
  C      4.155911    1.638742    0.019883
  C      3.432802    2.839986    0.002477
  H      5.610951   -1.134996    0.038586
  H     -0.633266    1.552117    0.133173
  H      1.037607   -0.570179    0.020147
  H      5.144791   -2.180808    0.166484
  H      6.365204   -0.616676    0.009386
  H      0.185708   -2.411312   -0.056039
  H      0.272104   -3.245838   -0.034438
  H      3.673585   -7.245906   -0.065854
  H      4.284478   -4.294447    0.156287
  H      2.331153    0.844313    0.010871
  H      0.014498    1.887595    0.010256
  H      1.844133   -4.845636    0.043734
  H      4.011255   -6.934455   -0.651380
  H      5.664827   -0.185535   -0.013518
  H      5.902644    2.783077   -0.010996
  H      6.322665    1.172586    0.048952
  H      3.556535    4.712247   -0.022135

----------------------------
CARTESIAN COORDINATES (A.U.)
----------------------------
  NO LB      ZA    FRAG     MASS         X           Y           Z
   0 O     8.0000    0    15.999    7.979690    7.585871   -0.027802
   1 O     8.0000    0    15.999    4.086633    5.738085   -0.010239
   2 N     7.0000    0    14.007   10.546800    3.468617    0.023616
   3 C     6.0000    0    12.011    5.994334   -1.840962    0.012595
   4 C     6.0000    0    12.011    3.331519   -2.599732   -0.035820
   5 C     6.0000    0    12.011    7.652066   -4.118318    0.171759
   6 C     6.0000    0    12.011    2.609145   -5.079943   -0.022989
   7 C     6.0000    0    12.011    6.751084   -6.572496    0.173503
   8 C     6.0000    0    12.011    6.288037    0.797138    0.022127
   9 C     6.0000    0    12.011    4.186941   -7.261479    0.060086
  10 C     6.0000    0    12.011    7.853534    3.096774    0.037573
  11 C     6.0000    0    12.011    6.487056    5.366796    0.004681
  12 H     1.0000    0     1.008   10.603161   -2.144832    0.072917
  13 H     1.0000    0     1.008   -1.196699    2.933076    0.251660
  14 H     1.0000    0     1.008    1.960793   -1.077482    0.038072
  15 H     1.0000    0     1.008    9.722246   -4.121130    0.314609
  16 H     1.0000    0     1.008   12.028492   -1.165349    0.017737
  17 H     1.0000    0     1.008    0.350937   -4.556719   -0.105898
  18 H     1.0000    0     1.008    0.514202   -6.133745   -0.065078
  19 H     1.0000    0     1.008    6.942070  -13.692778   -0.124446
  20 H     1.0000    0     1.008    8.096490   -8.115329    0.295340
  21 H     1.0000    0     1.008    4.405241    1.595520    0.020543
  22 H     1.0000    0     1.008    0.027397    3.567038    0.019381
  23 H     1.0000    0     1.008    3.484906   -9.156925    0.082645
  24 H     1.0000    0     1.008    7.580173  -13.104221   -1.230930
  25 H     1.0000    0     1.008   10.704972   -0.350610   -0.025545
  26 H     1.0000    0     1.008   11.154381    5.259253   -0.020779
  27 H     1.0000    0     1.008   11.948105    2.215866    0.092506
  28 H     1.0000    0     1.008    6.720877    8.904856   -0.041829

--------------------------------
INTERNAL COORDINATES (ANGSTROEM)
--------------------------------
 O      0   0   0     0.000000000000     0.00000000     0.00000000
 O      1   0   0     2.280410709886     0.00000000     0.00000000
 N      1   2   0     2.567708141255    96.54993724     0.00000000
 C      3   1   2     3.701090104173   107.44441450     0.59021453
 C      4   3   1     1.465415823300   146.50443517     1.01412550
 C      4   3   1     1.492970118742   103.31152042   182.68005591
 C      5   4   3     1.367023041370   122.13158063   179.61499081
 C      6   4   3     1.383447783545   123.73066429   181.25713580
 C      4   3   1     1.404656026813    34.25740600   359.10226541
 C      8   6   4     1.406296754656   125.16053538   359.15529195
 C      3   1   2     1.438753340800    65.92242455   359.71126682
 C      2   1   3     1.285378721432    34.18819713     0.33214016
 H      6   4   3     1.879389634723    92.18521593   357.41895236
 H      2   1   3     3.168453465407   176.56652416    40.84787902
 H      5   4   3     1.084696471578   116.03413981   355.86007723
 H      6   4   3     1.098098009222   126.23932446     1.66698490
 H     13   6   4     0.915645046079   179.23901235   345.48402904
 H      7   5   4     1.227433189556    93.18104051   180.70568304
 H     18   7   5     0.839264271069    71.00758256   180.45616891
 H     10   8   6     3.703726111784    81.92553881   176.35422605
 H      8   6   4     1.085173798116   118.69819400   179.99876621
 H      9   4   3     1.082208191306   106.62599615   179.75055456
 H     14   2  12     0.739765014764     7.08136915   270.74685681
 H     10   8   6     1.069681574850   125.29068303   180.74617822
 H     20  10   8     0.744220028605    79.32732487   303.62032054
 H     17  13  16     0.822760656100    66.19084844   186.63459318
 H      3   1   2     1.000901233623    50.68329057   179.06355534
 H      3   1   2     0.995329725707   163.67660275   185.70643998
 H      1   2   3     0.964864151932    71.73050813   180.09666520

---------------------------
INTERNAL COORDINATES (A.U.)
---------------------------
 O      0   0   0     0.000000000000     0.00000000     0.00000000
 O      1   0   0     4.309351714545     0.00000000     0.00000000
 N      1   2   0     4.852265178811    96.54993724     0.00000000
 C      3   1   2     6.994046693853   107.44441450     0.59021453
 C      4   3   1     2.769234578351   146.50443517     1.01412550
 C      4   3   1     2.821304650551   103.31152042   182.68005591
 C      5   4   3     2.583299166950   122.13158063   179.61499081
 C      6   4   3     2.614337431480   123.73066429   181.25713580
 C      4   3   1     2.654415203038    34.25740600   359.10226541
 C      8   6   4     2.657515729322   125.16053538   359.15529195
 C      3   1   2     2.718849788376    65.92242455   359.71126682
 C      2   1   3     2.429013761876    34.18819713     0.33214016
 H      6   4   3     3.551531708557    92.18521593   357.41895236
 H      2   1   3     5.987509317693   176.56652416    40.84787902
 H      5   4   3     2.049779269712   116.03413981   355.86007723
 H      6   4   3     2.075104505633   126.23932446     1.66698490
 H     13   6   4     1.730318372971   179.23901235   345.48402904
 H      7   5   4     2.319512575947    93.18104051   180.70568304
 H     18   7   5     1.585979626305    71.00758256   180.45616891
 H     10   8   6     6.999028026325    81.92553881   176.35422605
 H      8   6   4     2.050681286146   118.69819400   179.99876621
 H      9   4   3     2.045077101454   106.62599615   179.75055456
 H     14   2  12     1.397953281360     7.08136915   270.74685681
 H     10   8   6     2.021405226968   125.29068303   180.74617822
 H     20  10   8     1.406372037443    79.32732487   303.62032054
 H     17  13  16     1.554792313794    66.19084844   186.63459318
 H      3   1   2     1.891429218652    50.68329057   179.06355534
 H      3   1   2     1.880900594536   163.67660275   185.70643998
 H      1   2   3     1.823329003589    71.73050813   180.09666520

---------------------
BASIS SET INFORMATION
---------------------
There are 4 groups of distinct atoms

 Group   1 Type O   : 10s4p1d contracted to 3s2p1d pattern {631/31/1}
 Group   2 Type N   : 10s4p1d contracted to 3s2p1d pattern {631/31/1}
 Group   3 Type C   : 10s4p1d contracted to 3s2p1d pattern {631/31/1}
 Group   4 Type H   : 4s1p contracted to 2s1p pattern {31/1}

Atom   0O    basis set group =>   1
Atom   1O    basis set group =>   1
Atom   2N    basis set group =>   2
Atom   3C    basis set group =>   3
Atom   4C    basis set group =>   3
Atom   5C    basis set group =>   3
Atom   6C    basis set group =>   3
Atom   7C    basis set group =>   3
Atom   8C    basis set group =>   3
Atom   9C    basis set group =>   3
Atom  10C    basis set group =>   3
Atom  11C    basis set group =>   3
Atom  12H    basis set group =>   4
Atom  13H    basis set group =>   4
Atom  14H    basis set group =>   4
Atom  15H    basis set group =>   4
Atom  16H    basis set group =>   4
Atom  17H    basis set group =>   4
Atom  18H    basis set group =>   4
Atom  19H    basis set group =>   4
Atom  20H    basis set group =>   4
Atom  21H    basis set group =>   4
Atom  22H    basis set group =>   4
Atom  23H    basis set group =>   4
Atom  24H    basis set group =>   4
Atom  25H    basis set group =>   4
Atom  26H    basis set group =>   4
Atom  27H    basis set group =>   4
Atom  28H    basis set group =>   4
---------------------------------
AUXILIARY/J BASIS SET INFORMATION
---------------------------------
There are 4 groups of distinct atoms

 Group   1 Type O   : 12s5p4d2f1g contracted to 6s4p3d1f1g pattern {711111/2111/211/2/1}
 Group   2 Type N   : 12s5p4d2f1g contracted to 6s4p3d1f1g pattern {711111/2111/211/2/1}
 Group   3 Type C   : 12s5p4d2f1g contracted to 6s4p3d1f1g pattern {711111/2111/211/2/1}
 Group   4 Type H   : 5s2p1d contracted to 3s1p1d pattern {311/2/1}

Atom   0O    basis set group =>   1
Atom   1O    basis set group =>   1
Atom   2N    basis set group =>   2
Atom   3C    basis set group =>   3
Atom   4C    basis set group =>   3
Atom   5C    basis set group =>   3
Atom   6C    basis set group =>   3
Atom   7C    basis set group =>   3
Atom   8C    basis set group =>   3
Atom   9C    basis set group =>   3
Atom  10C    basis set group =>   3
Atom  11C    basis set group =>   3
Atom  12H    basis set group =>   4
Atom  13H    basis set group =>   4
Atom  14H    basis set group =>   4
Atom  15H    basis set group =>   4
Atom  16H    basis set group =>   4
Atom  17H    basis set group =>   4
Atom  18H    basis set group =>   4
Atom  19H    basis set group =>   4
Atom  20H    basis set group =>   4
Atom  21H    basis set group =>   4
Atom  22H    basis set group =>   4
Atom  23H    basis set group =>   4
Atom  24H    basis set group =>   4
Atom  25H    basis set group =>   4
Atom  26H    basis set group =>   4
Atom  27H    basis set group =>   4
Atom  28H    basis set group =>   4


           ************************************************************
           *        Program running with 2 parallel MPI-processes     *
           *              working on a common directory               *
           ************************************************************
------------------------------------------------------------------------------
                             ORCA STARTUP CALCULATIONS
                           -- RI-GTO INTEGRALS CHOSEN --
------------------------------------------------------------------------------
------------------------------------------------------------------------------
                   ___                                                        
                  /   \      - P O W E R E D   B Y -                         
                 /     \                                                     
                 |  |  |   _    _      __       _____    __    __             
                 |  |  |  | |  | |    /  \     |  _  \  |  |  /  |          
                  \  \/   | |  | |   /    \    | | | |  |  | /  /          
                 / \  \   | |__| |  /  /\  \   | |_| |  |  |/  /          
                |  |  |   |  __  | /  /__\  \  |    /   |      \           
                |  |  |   | |  | | |   __   |  |    \   |  |\   \          
                \     /   | |  | | |  |  |  |  | |\  \  |  | \   \       
                 \___/    |_|  |_| |__|  |__|  |_| \__\ |__|  \__/        
                                                                              
                      - O R C A' S   B I G   F R I E N D -                    
                                      &                                       
                       - I N T E G R A L  F E E D E R -                       
                                                                              
 v1 FN, 2020, v2 2021, v3 2022-2024                                           
------------------------------------------------------------------------------


----------------------
SHARK INTEGRAL PACKAGE
----------------------

Number of atoms                             ...     29
Number of basis functions                   ...    253
Number of shells                            ...    123
Maximum angular momentum                    ...      2
Integral batch strategy                     ... SHARK/LIBINT Hybrid
RI-J (if used) integral strategy            ... SPLIT-RIJ (Revised 2003 algorithm where possible)
Printlevel                                  ...      1
Contraction scheme used                     ... SEGMENTED contraction
Prescreening option                         ... SCHWARTZ
   Thresh                                   ... 2.500e-11
   Tcut                                     ... 2.500e-12
   Tpresel                                  ... 2.500e-12 
Coulomb Range Separation                    ... NOT USED
Exchange Range Separation                   ... NOT USED
Multipole approximations                    ... NOT USED
Finite Nucleus Model                        ... NOT USED
CABS basis                                  ... NOT available
Auxiliary Coulomb fitting basis             ... AVAILABLE
   # of basis functions in Aux-J            ...    775
   # of shells in Aux-J                     ...    265
   Maximum angular momentum in Aux-J        ...      4
Auxiliary J/K fitting basis                 ... NOT available
Auxiliary Correlation fitting basis         ... NOT available
Auxiliary 'external' fitting basis          ... NOT available

Checking pre-screening integrals            ... done (  0.0 sec) Dimension = 123
   => SHARK Basis and OBASIS are compatible. Storing Pre-screening
Shell pair information
Shell pair cut-off parameter TPreSel        ...   2.5e-12
Total number of shell pairs                 ...      7626
Shell pairs after pre-screening             ...      5717
Total number of primitive shell pairs       ...     35548
Primitive shell pairs kept                  ...     16808
          la=0 lb=0:   1905 shell pairs
          la=1 lb=0:   2135 shell pairs
          la=1 lb=1:    632 shell pairs
          la=2 lb=0:    631 shell pairs
          la=2 lb=1:    357 shell pairs
          la=2 lb=2:     57 shell pairs

Checking whether 4 symmetric matrices of dimension 253 fit in memory
:Max Core in MB      =   3000.00
 MB in use           =     10.97
 MB left             =   2989.03
 MB needed           =      0.98
 Data fit in memory  = YES
Calculating RI/J V-Matrix + Cholesky decomp.... done (  0.0 sec)
Calculating Nuclear repulsion               ... done (  0.0 sec) ENN=    709.774120220938 Eh

Diagonalization of the overlap matrix:
Smallest eigenvalue                        ... 5.192e-04
Time for diagonalization                   ...    0.007 sec
Threshold for overlap eigenvalues          ... 1.000e-07
Number of eigenvalues below threshold      ... 0
Time for construction of square roots      ...    0.003 sec
Total time needed                          ...    0.010 sec

-------------------
DFT GRID GENERATION
-------------------

General Integration Accuracy     IntAcc      ... 4.388
Radial Grid Type                 RadialGrid  ... OptM3 with GC (2021)
Angular Grid (max. ang.)         AngularGrid ... 4 (Lebedev-302)
Angular grid pruning method      GridPruning ... 4 (adaptive)
Weight generation scheme         WeightScheme... mBecke (2022)
Basis function cutoff            BFCut       ... 1.0000e-11
Integration weight cutoff        WCut        ... 1.0000e-14
Partially contracted basis set               ... off
Rotationally invariant grid construction     ... off
Angular grids for H and He will be reduced by one unit

Total number of grid points                  ...   126627
Total number of batches                      ...     1992
Average number of points per batch           ...       63
Average number of grid points per atom       ...     4366

--------------------
COSX GRID GENERATION
--------------------

GRIDX 1
-------
General Integration Accuracy     IntAcc      ... 3.816
Radial Grid Type                 RadialGrid  ... OptM3 with GC (2021)
Angular Grid (max. ang.)         AngularGrid ... 1 (Lebedev-50)
Angular grid pruning method      GridPruning ... 4 (adaptive)
Weight generation scheme         WeightScheme... mBecke (2022)
Basis function cutoff            BFCut       ... 1.0000e-11
Integration weight cutoff        WCut        ... 1.0000e-14
Partially contracted basis set               ... on
Rotationally invariant grid construction     ... off
Angular grids for H and He will be reduced by one unit

Total number of grid points                  ...    16259
Total number of batches                      ...      141
Average number of points per batch           ...      115
Average number of grid points per atom       ...      561
UseSFitting                                  ... on

GRIDX 2
-------
General Integration Accuracy     IntAcc      ... 4.020
Radial Grid Type                 RadialGrid  ... OptM3 with GC (2021)
Angular Grid (max. ang.)         AngularGrid ... 2 (Lebedev-110)
Angular grid pruning method      GridPruning ... 4 (adaptive)
Weight generation scheme         WeightScheme... mBecke (2022)
Basis function cutoff            BFCut       ... 1.0000e-11
Integration weight cutoff        WCut        ... 1.0000e-14
Partially contracted basis set               ... on
Rotationally invariant grid construction     ... off
Angular grids for H and He will be reduced by one unit

Total number of grid points                  ...    34167
Total number of batches                      ...      279
Average number of points per batch           ...      122
Average number of grid points per atom       ...     1178
UseSFitting                                  ... on

GRIDX 3
-------
General Integration Accuracy     IntAcc      ... 4.338
Radial Grid Type                 RadialGrid  ... OptM3 with GC (2021)
Angular Grid (max. ang.)         AngularGrid ... 3 (Lebedev-194)
Angular grid pruning method      GridPruning ... 4 (adaptive)
Weight generation scheme         WeightScheme... mBecke (2022)
Basis function cutoff            BFCut       ... 1.0000e-11
Integration weight cutoff        WCut        ... 1.0000e-14
Partially contracted basis set               ... on
Rotationally invariant grid construction     ... off
Angular grids for H and He will be reduced by one unit

Total number of grid points                  ...    74599
Total number of batches                      ...      597
Average number of points per batch           ...      124
Average number of grid points per atom       ...     2572
UseSFitting                                  ... on
Grids setup in   2.3 sec
Initializing property integral containers    ... done (  0.0 sec)

SHARK setup successfully completed in   2.5 seconds

Maximum memory used throughout the entire STARTUP-calculation: 42.4 MB


           ************************************************************
           *        Program running with 2 parallel MPI-processes     *
           *              working on a common directory               *
           ************************************************************
-------------------------------------------------------------------------------
                                 ORCA GUESS
                   Start orbitals & Density for SCF / CASSCF
-------------------------------------------------------------------------------

------------
SCF SETTINGS
------------
Hamiltonian:
 Density Functional     Method          .... DFT(GTOs)
 Exchange Functional    Exchange        .... B88
   X-Alpha parameter    XAlpha          ....  0.666667
   Becke's b parameter  XBeta           ....  0.004200
 Correlation Functional Correlation     .... LYP
 LDA part of GGA corr.  LDAOpt          .... VWN-5
 Gradients option       PostSCFGGA      .... off
 Hybrid DFT is turned on
   Fraction HF Exchange ScalHFX         ....  0.200000
   Scaling of DF-GGA-X  ScalDFX         ....  0.720000
   Scaling of DF-GGA-C  ScalDFC         ....  0.810000
   Scaling of DF-LDA-C  ScalLDAC        ....  1.000000
   Perturbative correction              ....  0.000000
   NL short-range parameter             ....  4.800000
 RI-approximation to the Coulomb term is turned on
   Number of AuxJ basis functions       .... 775
   RIJ-COSX (HFX calculated with COS-X)).... on


General Settings:
 Integral files         IntName         .... /kaggle/working/Cha-2/Cha_InterFrag
 Hartree-Fock type      HFTyp           .... RHF
 Total Charge           Charge          ....    0
 Multiplicity           Mult            ....    1
 Number of Electrons    NEL             ....   94
 Basis Dimension        Dim             ....  253
 Nuclear Repulsion      ENuc            ....    709.7741202209 Eh

Convergence Acceleration:
 AO-DIIS                CNVDIIS         .... on
   Start iteration      DIISMaxIt       ....    12
   Startup error        DIISStart       ....  0.200000
   # of expansion vecs  DIISMaxEq       ....     5
   Bias factor          DIISBfac        ....   1.050
   Max. coefficient     DIISMaxC        ....  10.000
 MO-DIIS                CNVKDIIS        .... off
 Trust-Rad. Augm. Hess. CNVTRAH         .... auto
   Auto Start mean grad. ratio tolernc. ....  1.125000
   Auto Start start iteration           ....    50
   Auto Start num. interpolation iter.  ....    10
   Max. Number of Micro iterations      ....    24
   Max. Number of Macro iterations      .... Maxiter - #DIIS iter
   Number of Davidson start vectors     ....     2
   Converg. threshold    (grad. norm)   ....   1.000e-05
   Grad. Scal. Fac. for Micro threshold ....   0.100
   Minimum threshold for Micro iter.    ....   1.000e-02
   NR start threshold (gradient norm)   ....   1.000e-04
   Initial trust radius                 ....   0.400
   Minimum AH scaling param. (alpha)    ....   1.000
   Maximum AH scaling param. (alpha)    .... 1000.000
   Quad. conv. algorithm                .... NR
   White noise on init. David. guess    .... on
   Maximum white noise                  ....   0.010
   Pseudo random numbers                .... off
   Inactive MOs                         .... canonical
   Orbital update algorithm             .... Taylor
   Preconditioner                       .... Diag
   Full preconditioner red. dimension   ....   250
 SOSCF                 CNVSOSCF           .... on
   Start iteration     SOSCFMaxIt         ....   150
   Startup grad/error  SOSCFStart         ....  0.003300
   Hessian update      SOSCFHessUp        .... L-BFGS
   Autom. constraints  SOSCFAutoConstrain .... off
 Level Shifting         CNVShift        .... on
   Level shift para.    LevelShift      ....    0.2500
   Turn off err/grad.   ShiftErr        ....    0.0010
 Zerner damping         CNVZerner       .... off
 Static damping         CNVDamp         .... on
   Fraction old density DampFac         ....    0.7000
   Max. Damping (<1)    DampMax         ....    0.9800
   Min. Damping (>=0)   DampMin         ....    0.0000
   Turn off err/grad.   DampErr         ....    0.1000

SCF Procedure:
 Maximum # iterations   MaxIter         ....   125
 SCF integral mode      SCFMode         .... Direct
   Integral package                     .... SHARK and LIBINT hybrid scheme
 Reset frequency        DirectResetFreq ....    20
 Integral Threshold     Thresh          ....  2.500e-11 Eh
 Primitive CutOff       TCut            ....  2.500e-12 Eh

Convergence Tolerance:
 Convergence Check Mode ConvCheckMode   .... Total+1el-Energy
 Convergence forced     ConvForced      .... 0
 Energy Change          TolE            ....  1.000e-08 Eh
 1-El. energy change                    ....  1.000e-05 Eh
 Orbital Gradient       TolG            ....  1.000e-05
 Orbital Rotation angle TolX            ....  1.000e-05
 DIIS Error             TolErr          ....  5.000e-07

------------------------------
INITIAL GUESS: MODEL POTENTIAL
------------------------------
Loading Hartree-Fock densities                     ... done
Calculating cut-offs                               ... done
Initializing the effective Hamiltonian             ... done
Setting up the integral package (SHARK)            ... done
Starting the Coulomb interaction                   ... done (   0.2 sec)
Making the grid                                    ... done (   0.3 sec)
Mapping shells                                     ... done
Starting the XC term evaluation                    ... done (   0.2 sec)
  promolecular density results
     # of electrons  =     93.986653451
     EX              =    -74.237692654
     EC              =     -3.113447692
     EX+EC           =    -77.351140346
Transforming the Hamiltonian                       ... done (   0.0 sec)
Diagonalizing the Hamiltonian                      ... done (   0.0 sec)
Back transforming the eigenvectors                 ... done (   0.0 sec)
Now organizing SCF variables                       ... done
                      ------------------
                      INITIAL GUESS DONE (   0.7 sec)
                      ------------------
             **** ENERGY FILE WAS UPDATED (/kaggle/working/Cha-2/Cha_InterFrag.en.tmp) ****
Finished Guess after   1.0 sec
Maximum memory used throughout the entire GUESS-calculation: 15.6 MB


           ************************************************************
           *        Program running with 2 parallel MPI-processes     *
           *              working on a common directory               *
           ************************************************************

-------------------------------------------------------------------------------------------
                                      ORCA LEAN-SCF
                              memory conserving SCF solver
-------------------------------------------------------------------------------------------

----------------------------------------D-I-I-S--------------------------------------------
Iteration    Energy (Eh)           Delta-E    RMSDP     MaxDP     DIISErr   Damp  Time(sec)
-------------------------------------------------------------------------------------------
               ***  Starting incremental Fock matrix formation  ***
    1    -556.8930472213220355     0.00e+00  5.99e-03  1.39e-01  3.12e-01  0.700   5.9
Warning: op=0 Small HOMO/LUMO gap (  -0.083) - skipping pre-diagonalization
         Will do a full diagonalization
    2    -557.1539436896849793    -2.61e-01  5.35e-03  2.03e-01  1.25e-01  0.700   3.1
                               ***Turning on AO-DIIS***
    3    -557.2490113247214367    -9.51e-02  1.80e-03  4.68e-02  5.04e-02  0.700   3.1
    4    -557.3060882109867862    -5.71e-02  3.49e-03  1.42e-01  2.74e-02  0.000   3.0
    5    -557.4415230343098528    -1.35e-01  1.59e-03  6.68e-02  1.38e-02  0.000   3.0
    6    -557.4454654383033585    -3.94e-03  1.02e-03  4.52e-02  5.47e-03  0.000   2.9
    7    -557.4467836365419089    -1.32e-03  7.52e-04  3.09e-02  4.06e-03  0.000   2.9
                              *** Initializing SOSCF ***
---------------------------------------S-O-S-C-F--------------------------------------
Iteration    Energy (Eh)           Delta-E    RMSDP     MaxDP     MaxGrad    Time(sec)
--------------------------------------------------------------------------------------
    8    -557.4475451780718913    -7.62e-04  6.16e-04  2.34e-02  3.22e-03     2.8
               *** Restarting incremental Fock matrix formation ***
    9    -557.4480490492668423    -5.04e-04  1.12e-03  3.67e-02  3.84e-03     6.0
   10    -557.4486509924994380    -6.02e-04  4.39e-03  2.00e-01  2.31e-03     4.8
   11    -557.4491430641347733    -4.92e-04  1.23e-03  5.38e-02  3.16e-03     5.2
   12    -557.4494399322885556    -2.97e-04  3.50e-04  1.26e-02  1.27e-03     4.8
   13    -557.4495233818798852    -8.34e-05  8.79e-04  4.99e-02  8.60e-04     4.6
   14    -557.4495790099384749    -5.56e-05  8.35e-04  4.08e-02  7.09e-04     4.8
   15    -557.4496202427463913    -4.12e-05  7.84e-04  3.08e-02  7.94e-04     4.8
   16    -557.4496668277639628    -4.66e-05  1.66e-03  6.69e-02  5.16e-04     4.6
   17    -557.4497349470985910    -6.81e-05  1.46e-03  4.90e-02  8.03e-04     4.9
   18    -557.4497822933627731    -4.73e-05  3.44e-04  1.22e-02  5.63e-04     4.9
   19    -557.4497959676128858    -1.37e-05  1.29e-04  2.80e-03  3.32e-04     4.5
   20    -557.4498031987694731    -7.23e-06  1.06e-04  2.52e-03  1.86e-04     4.3
   21    -557.4498066641696141    -3.47e-06  6.95e-05  1.66e-03  1.11e-04     4.2
   22    -557.4498080252350292    -1.36e-06  7.70e-05  2.53e-03  7.68e-05     4.0
   23    -557.4498084670823346    -4.42e-07  1.81e-05  6.28e-04  3.72e-05     4.0
   24    -557.4498086117927187    -1.45e-07  1.04e-05  2.79e-04  3.26e-05     3.6
   25    -557.4498086512377313    -3.94e-08  1.13e-05  4.69e-04  1.85e-05     3.4
   26    -557.4498086778975221    -2.67e-08  1.74e-05  6.52e-04  1.39e-05     3.2
   27    -557.4498086904314960    -1.25e-08  8.89e-06  2.87e-04  5.91e-06     3.3
   28    -557.4498086970057784    -6.57e-09  1.75e-06  3.43e-05  3.38e-06     3.2
                 **** Energy Check signals convergence ****
               *** Restarting incremental Fock matrix formation ***

               *****************************************************
               *                     SUCCESS                       *
               *           SCF CONVERGED AFTER  28 CYCLES          *
               *****************************************************

Recomputing exchange energy using gridx3       ... done (   10.027 sec)
Old exchange energy                            :    -15.082749772 Eh
New exchange energy                            :    -15.082760551 Eh
Exchange energy change after final integration :     -0.000010779 Eh
Total energy after final integration           :   -557.449819473 Eh
             **** ENERGY FILE WAS UPDATED (/kaggle/working/Cha-2/Cha_InterFrag.en.tmp) ****

----------------
TOTAL SCF ENERGY
----------------

Total Energy       :       -557.44981947345161 Eh          -15168.98076 eV

Components:
Nuclear Repulsion  :        709.77412022093756 Eh           19313.93571 eV
Electronic Energy  :      -1267.22392891563413 Eh          -34482.91618 eV
One Electron Energy:      -2166.13461931323445 Eh          -58943.51962 eV
Two Electron Energy:        898.91069039760043 Eh           24460.60344 eV

Virial components:
Potential Energy   :      -1111.44297500124731 Eh          -30243.90092 eV
Kinetic Energy     :        553.99315552779569 Eh           15074.92016 eV
Virial Ratio       :          2.00623954269320

DFT components:
N(Alpha)           :       46.999967875340 electrons
N(Beta)            :       46.999967875340 electrons
N(Total)           :       93.999935750680 electrons
E(X)               :      -60.004939169921 Eh       
E(C)               :       -3.682309300291 Eh       
E(XC)              :      -63.687248470211 Eh       

---------------
SCF CONVERGENCE
---------------

  Last Energy change         ...    6.5743e-09  Tolerance :   1.0000e-08
  Last MAX-Density change    ...    3.4321e-05  Tolerance :   1.0000e-07
  Last RMS-Density change    ...    1.7495e-06  Tolerance :   5.0000e-09
  Last DIIS Error            ...    3.2230e-03  Tolerance :   5.0000e-07
  Last Orbital Gradient      ...    3.3820e-06  Tolerance :   1.0000e-05
  Last Orbital Rotation      ...    4.3519e-05  Tolerance :   1.0000e-05


----------------
ORBITAL ENERGIES
----------------

  NO   OCC          E(Eh)            E(eV) 
   0   2.0000     -19.114577      -520.1341 
   1   2.0000     -19.040370      -518.1148 
   2   2.0000     -14.299966      -389.1219 
   3   2.0000     -10.259226      -279.1677 
   4   2.0000     -10.228118      -278.3212 
   5   2.0000     -10.205776      -277.7133 
   6   2.0000     -10.193187      -277.3707 
   7   2.0000     -10.182463      -277.0789 
   8   2.0000     -10.181282      -277.0468 
   9   2.0000     -10.170370      -276.7498 
  10   2.0000     -10.170343      -276.7491 
  11   2.0000     -10.141625      -275.9676 
  12   2.0000      -1.006921       -27.3997 
  13   2.0000      -0.897870       -24.4323 
  14   2.0000      -0.882657       -24.0183 
  15   2.0000      -0.865493       -23.5513 
  16   2.0000      -0.800286       -21.7769 
  17   2.0000      -0.761390       -20.7185 
  18   2.0000      -0.737048       -20.0561 
  19   2.0000      -0.696515       -18.9531 
  20   2.0000      -0.664553       -18.0834 
  21   2.0000      -0.637229       -17.3399 
  22   2.0000      -0.593132       -16.1399 
  23   2.0000      -0.548769       -14.9328 
  24   2.0000      -0.511646       -13.9226 
  25   2.0000      -0.498645       -13.5688 
  26   2.0000      -0.477955       -13.0058 
  27   2.0000      -0.465564       -12.6686 
  28   2.0000      -0.457132       -12.4392 
  29   2.0000      -0.439332       -11.9548 
  30   2.0000      -0.426103       -11.5948 
  31   2.0000      -0.406402       -11.0588 
  32   2.0000      -0.396829       -10.7983 
  33   2.0000      -0.382971       -10.4212 
  34   2.0000      -0.373257       -10.1568 
  35   2.0000      -0.366853        -9.9826 
  36   2.0000      -0.365308        -9.9405 
  37   2.0000      -0.359335        -9.7780 
  38   2.0000      -0.323920        -8.8143 
  39   2.0000      -0.312428        -8.5016 
  40   2.0000      -0.286529        -7.7969 
  41   2.0000      -0.269048        -7.3212 
  42   2.0000      -0.255611        -6.9555 
  43   2.0000      -0.231679        -6.3043 
  44   2.0000      -0.192575        -5.2402 
  45   2.0000      -0.158114        -4.3025 
  46   2.0000      -0.077048        -2.0966 
  47   0.0000      -0.044422        -1.2088 
  48   0.0000      -0.034112        -0.9282 
  49   0.0000      -0.023730        -0.6457 
  50   0.0000      -0.010383        -0.2825 
  51   0.0000      -0.009259        -0.2519 
  52   0.0000       0.044453         1.2096 
  53   0.0000       0.087868         2.3910 
  54   0.0000       0.111612         3.0371 
  55   0.0000       0.134168         3.6509 
  56   0.0000       0.135305         3.6818 
  57   0.0000       0.149529         4.0689 
  58   0.0000       0.153932         4.1887 
  59   0.0000       0.159821         4.3489 
  60   0.0000       0.161779         4.4022 
  61   0.0000       0.188884         5.1398 
  62   0.0000       0.191798         5.2191 
  63   0.0000       0.203313         5.5324 
  64   0.0000       0.240483         6.5439 
  65   0.0000       0.256615         6.9829 
  66   0.0000       0.269029         7.3206 
  67   0.0000       0.286042         7.7836 
  68   0.0000       0.313795         8.5388 
  69   0.0000       0.335903         9.1404 
  70   0.0000       0.345464         9.4006 
  71   0.0000       0.385220        10.4824 
  72   0.0000       0.417488        11.3604 
  73   0.0000       0.438246        11.9253 
  74   0.0000       0.477941        13.0054 
  75   0.0000       0.482384        13.1263 
  76   0.0000       0.511834        13.9277 
  77   0.0000       0.512403        13.9432 
  78   0.0000       0.523125        14.2350 
  79   0.0000       0.559216        15.2170 
  80   0.0000       0.568717        15.4756 
  81   0.0000       0.574790        15.6408 
  82   0.0000       0.584280        15.8991 
  83   0.0000       0.586168        15.9504 
  84   0.0000       0.615852        16.7582 
  85   0.0000       0.617864        16.8129 
  86   0.0000       0.632076        17.1997 
  87   0.0000       0.637860        17.3570 
  88   0.0000       0.639281        17.3957 
  89   0.0000       0.649198        17.6656 
  90   0.0000       0.661793        18.0083 
  91   0.0000       0.662404        18.0249 
  92   0.0000       0.665617        18.1124 
  93   0.0000       0.683065        18.5871 
  94   0.0000       0.695566        18.9273 
  95   0.0000       0.699940        19.0463 
  96   0.0000       0.709411        19.3041 
  97   0.0000       0.738268        20.0893 
  98   0.0000       0.752900        20.4874 
  99   0.0000       0.770451        20.9650 
 100   0.0000       0.783090        21.3090 
 101   0.0000       0.794975        21.6324 
 102   0.0000       0.811654        22.0862 
 103   0.0000       0.813561        22.1381 
 104   0.0000       0.823115        22.3981 
 105   0.0000       0.833734        22.6871 
 106   0.0000       0.846526        23.0351 
 107   0.0000       0.869111        23.6497 
 108   0.0000       0.877877        23.8882 
 109   0.0000       0.903420        24.5833 
 110   0.0000       0.912402        24.8277 
 111   0.0000       0.923291        25.1240 
 112   0.0000       0.941092        25.6084 
 113   0.0000       0.979333        26.6490 
 114   0.0000       0.993530        27.0353 
 115   0.0000       0.997234        27.1361 
 116   0.0000       1.012665        27.5560 
 117   0.0000       1.023782        27.8585 
 118   0.0000       1.041045        28.3283 
 119   0.0000       1.042322        28.3630 
 120   0.0000       1.059459        28.8293 
 121   0.0000       1.080265        29.3955 
 122   0.0000       1.098739        29.8982 
 123   0.0000       1.108075        30.1523 
 124   0.0000       1.146703        31.2034 
 125   0.0000       1.160364        31.5751 
 126   0.0000       1.186870        32.2964 
 127   0.0000       1.198011        32.5995 
 128   0.0000       1.212597        32.9964 
 129   0.0000       1.233175        33.5564 
 130   0.0000       1.240979        33.7688 
 131   0.0000       1.254776        34.1442 
 132   0.0000       1.282419        34.8964 
 133   0.0000       1.297710        35.3125 
 134   0.0000       1.311977        35.7007 
 135   0.0000       1.323596        36.0169 
 136   0.0000       1.341185        36.4955 
 137   0.0000       1.362290        37.0698 
 138   0.0000       1.369918        37.2774 
 139   0.0000       1.380198        37.5571 
 140   0.0000       1.394271        37.9400 
 141   0.0000       1.399812        38.0908 
 142   0.0000       1.412023        38.4231 
 143   0.0000       1.437481        39.1158 
 144   0.0000       1.466943        39.9175 
 145   0.0000       1.470516        40.0148 
 146   0.0000       1.489614        40.5345 
 147   0.0000       1.508904        41.0594 
 148   0.0000       1.564212        42.5644 
 149   0.0000       1.596279        43.4370 
 150   0.0000       1.637792        44.5666 
 151   0.0000       1.668724        45.4083 
 152   0.0000       1.677571        45.6490 
 153   0.0000       1.694789        46.1176 
 154   0.0000       1.716364        46.7046 
 155   0.0000       1.718888        46.7733 
 156   0.0000       1.737288        47.2740 
 157   0.0000       1.755875        47.7798 
 158   0.0000       1.765218        48.0340 
 159   0.0000       1.778442        48.3939 
 160   0.0000       1.792475        48.7757 
 161   0.0000       1.798002        48.9261 
 162   0.0000       1.812217        49.3129 
 163   0.0000       1.837092        49.9898 
 164   0.0000       1.852758        50.4161 
 165   0.0000       1.860888        50.6373 
 166   0.0000       1.875519        51.0355 
 167   0.0000       1.886789        51.3421 
 168   0.0000       1.913408        52.0665 
 169   0.0000       1.923987        52.3543 
 170   0.0000       1.933098        52.6023 
 171   0.0000       1.970374        53.6166 
 172   0.0000       1.973502        53.7017 
 173   0.0000       1.996990        54.3409 
 174   0.0000       2.007207        54.6189 
 175   0.0000       2.020470        54.9798 
 176   0.0000       2.033996        55.3479 
 177   0.0000       2.072545        56.3968 
 178   0.0000       2.082276        56.6616 
 179   0.0000       2.099026        57.1174 
 180   0.0000       2.111733        57.4632 
 181   0.0000       2.130877        57.9841 
 182   0.0000       2.134751        58.0895 
 183   0.0000       2.155884        58.6646 
 184   0.0000       2.159274        58.7568 
 185   0.0000       2.171868        59.0995 
 186   0.0000       2.202856        59.9428 
 187   0.0000       2.227275        60.6072 
 188   0.0000       2.257623        61.4331 
 189   0.0000       2.266478        61.6740 
 190   0.0000       2.280775        62.0630 
 191   0.0000       2.301081        62.6156 
 192   0.0000       2.348026        63.8930 
 193   0.0000       2.354802        64.0774 
 194   0.0000       2.363508        64.3143 
 195   0.0000       2.379395        64.7466 
 196   0.0000       2.407088        65.5002 
 197   0.0000       2.416520        65.7568 
 198   0.0000       2.431582        66.1667 
 199   0.0000       2.435755        66.2803 
 200   0.0000       2.448950        66.6393 
 201   0.0000       2.463996        67.0487 
 202   0.0000       2.470054        67.2136 
 203   0.0000       2.489527        67.7435 
 204   0.0000       2.491210        67.7893 
 205   0.0000       2.508194        68.2514 
 206   0.0000       2.519272        68.5529 
 207   0.0000       2.550972        69.4155 
 208   0.0000       2.555361        69.5349 
 209   0.0000       2.559600        69.6502 
 210   0.0000       2.580435        70.2172 
 211   0.0000       2.601404        70.7878 
 212   0.0000       2.607395        70.9508 
 213   0.0000       2.610977        71.0483 
 214   0.0000       2.627484        71.4975 
 215   0.0000       2.658984        72.3546 
 216   0.0000       2.663181        72.4688 
 217   0.0000       2.669184        72.6322 
 218   0.0000       2.678442        72.8841 
 219   0.0000       2.684887        73.0595 
 220   0.0000       2.695410        73.3458 
 221   0.0000       2.697974        73.4156 
 222   0.0000       2.734477        74.4089 
 223   0.0000       2.744311        74.6765 
 224   0.0000       2.780443        75.6597 
 225   0.0000       2.799339        76.1739 
 226   0.0000       2.803814        76.2956 
 227   0.0000       2.817385        76.6650 
 228   0.0000       2.873475        78.1912 
 229   0.0000       2.905068        79.0509 
 230   0.0000       2.922597        79.5279 
 231   0.0000       3.003006        81.7160 
 232   0.0000       3.030186        82.4556 
 233   0.0000       3.087618        84.0183 
 234   0.0000       3.122172        84.9586 
 235   0.0000       3.159060        85.9624 
 236   0.0000       3.184233        86.6474 
 237   0.0000       3.246444        88.3402 
 238   0.0000       3.291480        89.5657 
 239   0.0000       3.304306        89.9147 
 240   0.0000       3.363142        91.5158 
 241   0.0000       3.415331        92.9359 
 242   0.0000       3.453324        93.9697 
 243   0.0000       3.517880        95.7264 
 244   0.0000       3.554521        96.7234 
 245   0.0000       3.575899        97.3051 
 246   0.0000       3.709280       100.9346 
 247   0.0000       3.752850       102.1202 
 248   0.0000       3.789565       103.1193 
 249   0.0000       3.817580       103.8816 
 250   0.0000       3.987264       108.4990 
 251   0.0000       4.141045       112.6836 
 252   0.0000       4.220061       114.8337 

                    ********************************
                    * MULLIKEN POPULATION ANALYSIS *
                    ********************************

-----------------------
MULLIKEN ATOMIC CHARGES
-----------------------
   0 O :   -0.563309
   1 O :   -0.575955
   2 N :   -0.713614
   3 C :    0.106667
   4 C :   -0.156600
   5 C :   -0.196403
   6 C :   -0.212636
   7 C :   -0.104427
   8 C :   -0.254856
   9 C :   -0.156058
  10 C :    0.154549
  11 C :    0.468896
  12 H :    0.154610
  13 H :   -0.098808
  14 H :    0.133481
  15 H :    0.074607
  16 H :    0.166459
  17 H :    0.258101
  18 H :    0.250203
  19 H :   -0.001669
  20 H :    0.082538
  21 H :    0.108510
  22 H :    0.080416
  23 H :    0.079680
  24 H :    0.003744
  25 H :    0.119750
  26 H :    0.281253
  27 H :    0.205661
  28 H :    0.305211
Sum of atomic charges:    0.0000000

--------------------------------
MULLIKEN REDUCED ORBITAL CHARGES
--------------------------------
  0 O s       :     3.835635  s :     3.835635
      pz      :     1.857720  p :     4.706217
      px      :     1.586200
      py      :     1.262297
      dz2     :     0.003084  d :     0.021457
      dxz     :     0.002802
      dyz     :     0.001848
      dx2y2   :     0.002698
      dxy     :     0.011025

  1 O s       :     3.883393  s :     3.883393
      pz      :     1.586677  p :     4.669794
      px      :     1.333774
      py      :     1.749344
      dz2     :     0.002374  d :     0.022768
      dxz     :     0.007446
      dyz     :     0.000310
      dx2y2   :     0.007057
      dxy     :     0.005581

  2 N s       :     3.547607  s :     3.547607
      pz      :     1.867326  p :     4.143018
      px      :     1.106668
      py      :     1.169024
      dz2     :     0.003122  d :     0.022989
      dxz     :     0.004733
      dyz     :     0.000167
      dx2y2   :     0.005345
      dxy     :     0.009622

  3 C s       :     3.096148  s :     3.096148
      pz      :     1.110337  p :     2.753866
      px      :     0.808746
      py      :     0.834784
      dz2     :     0.003336  d :     0.043319
      dxz     :     0.003462
      dyz     :     0.011150
      dx2y2   :     0.011814
      dxy     :     0.013556

  4 C s       :     3.195927  s :     3.195927
      pz      :     0.997396  p :     2.922772
      px      :     1.030921
      py      :     0.894455
      dz2     :     0.003456  d :     0.037901
      dxz     :     0.005796
      dyz     :     0.007597
      dx2y2   :     0.008984
      dxy     :     0.012068

  5 C s       :     3.125350  s :     3.125350
      pz      :     1.296593  p :     3.037540
      px      :     0.803318
      py      :     0.937629
      dz2     :     0.003551  d :     0.033514
      dxz     :     0.001474
      dyz     :     0.006461
      dx2y2   :     0.014069
      dxy     :     0.007959

  6 C s       :     3.199740  s :     3.199740
      pz      :     1.322122  p :     2.966437
      px      :     0.676960
      py      :     0.967355
      dz2     :     0.004880  d :     0.046459
      dxz     :     0.001690
      dyz     :     0.013395
      dx2y2   :     0.018923
      dxy     :     0.007571

  7 C s       :     3.188804  s :     3.188804
      pz      :     0.952624  p :     2.875023
      px      :     0.955969
      py      :     0.966430
      dz2     :     0.003221  d :     0.040599
      dxz     :     0.008216
      dyz     :     0.007313
      dx2y2   :     0.009137
      dxy     :     0.012712

  8 C s       :     3.227497  s :     3.227497
      pz      :     1.110117  p :     2.991480
      px      :     1.028701
      py      :     0.852662
      dz2     :     0.003274  d :     0.035879
      dxz     :     0.001684
      dyz     :     0.010904
      dx2y2   :     0.009815
      dxy     :     0.010202

  9 C s       :     3.085979  s :     3.085979
      pz      :     1.299062  p :     3.037965
      px      :     0.900313
      py      :     0.838589
      dz2     :     0.003434  d :     0.032115
      dxz     :     0.004641
      dyz     :     0.003286
      dx2y2   :     0.007688
      dxy     :     0.013067

 10 C s       :     3.070012  s :     3.070012
      pz      :     1.216301  p :     2.723120
      px      :     0.631656
      py      :     0.875164
      dz2     :     0.004264  d :     0.052319
      dxz     :     0.012626
      dyz     :     0.005219
      dx2y2   :     0.016337
      dxy     :     0.013873

 11 C s       :     2.980109  s :     2.980109
      pz      :     0.911916  p :     2.443150
      px      :     0.725570
      py      :     0.805664
      dz2     :     0.006127  d :     0.107845
      dxz     :     0.020675
      dyz     :     0.013244
      dx2y2   :     0.024019
      dxy     :     0.043779

 12 H s       :     0.817627  s :     0.817627
      pz      :     0.000532  p :     0.027764
      px      :     0.009142
      py      :     0.018090

 13 H s       :     1.092400  s :     1.092400
      pz      :     0.000199  p :     0.006408
      px      :     0.005103
      py      :     0.001106

 14 H s       :     0.853692  s :     0.853692
      pz      :     0.002989  p :     0.012827
      px      :     0.004110
      py      :     0.005728

 15 H s       :     0.908509  s :     0.908509
      pz      :     0.005989  p :     0.016884
      px      :     0.006025
      py      :     0.004869

 16 H s       :     0.817648  s :     0.817648
      pz      :     0.000051  p :     0.015892
      px      :     0.011829
      py      :     0.004012

 17 H s       :     0.715990  s :     0.715990
      pz      :     0.005799  p :     0.025909
      px      :     0.007180
      py      :     0.012930

 18 H s       :     0.726998  s :     0.726998
      pz      :     0.004467  p :     0.022799
      px      :     0.005840
      py      :     0.012492

 19 H s       :     0.994838  s :     0.994838
      pz      :     0.004207  p :     0.006831
      px      :     0.001388
      py      :     0.001236

 20 H s       :     0.905050  s :     0.905050
      pz      :     0.002818  p :     0.012411
      px      :     0.004369
      py      :     0.005224

 21 H s       :     0.876959  s :     0.876959
      pz      :     0.003393  p :     0.014531
      px      :     0.006837
      py      :     0.004301

 22 H s       :     0.911271  s :     0.911271
      pz      :     0.000175  p :     0.008313
      px      :     0.006222
      py      :     0.001916

 23 H s       :     0.906330  s :     0.906330
      pz      :     0.004960  p :     0.013990
      px      :     0.002128
      py      :     0.006901

 24 H s       :     0.989441  s :     0.989441
      pz      :     0.004251  p :     0.006815
      px      :     0.001390
      py      :     0.001174

 25 H s       :     0.861373  s :     0.861373
      pz      :     0.000349  p :     0.018877
      px      :     0.006220
      py      :     0.012309

 26 H s       :     0.692557  s :     0.692557
      pz      :     0.008759  p :     0.026191
      px      :     0.004180
      py      :     0.013251

 27 H s       :     0.766158  s :     0.766158
      pz      :     0.011311  p :     0.028182
      px      :     0.009048
      py      :     0.007823

 28 H s       :     0.656292  s :     0.656292
      pz      :     0.009749  p :     0.038497
      px      :     0.014758
      py      :     0.013990


------------------------
MULLIKEN OVERLAP CHARGES
------------------------
B(  0-O ,  1-O ) :  -0.1704 B(  0-O , 10-C ) :  -0.1484 B(  0-O , 11-C ) :   0.4988 
B(  0-O , 28-H ) :   0.5526 B(  1-O , 10-C ) :  -0.1771 B(  1-O , 11-C ) :   1.0827 
B(  1-O , 21-H ) :   0.0667 B(  2-N ,  8-C ) :  -0.1562 B(  2-N , 10-C ) :   0.3659 
B(  2-N , 11-C ) :  -0.0637 B(  2-N , 26-H ) :   0.6824 B(  2-N , 27-H ) :   0.6958 
B(  3-C ,  4-C ) :   0.9518 B(  3-C ,  5-C ) :   0.6631 B(  3-C ,  6-C ) :  -0.0632 
B(  3-C ,  8-C ) :   0.8375 B(  3-C , 10-C ) :  -0.1311 B(  3-C , 15-H ) :  -0.1097 
B(  3-C , 21-H ) :  -0.0956 B(  4-C ,  5-C ) :  -0.0537 B(  4-C ,  6-C ) :   0.8867 
B(  4-C ,  7-C ) :  -0.0894 B(  4-C ,  9-C ) :  -0.0974 B(  4-C , 14-H ) :   0.7424 
B(  4-C , 18-H ) :  -0.0870 B(  5-C ,  6-C ) :  -0.0846 B(  5-C ,  7-C ) :   1.1187 
B(  5-C ,  8-C ) :  -0.1356 B(  5-C ,  9-C ) :  -0.1192 B(  5-C , 15-H ) :   0.4724 
B(  5-C , 16-H ) :  -0.0827 B(  5-C , 20-H ) :  -0.0752 B(  5-C , 25-H ) :   0.0542 
B(  6-C ,  9-C ) :   0.7602 B(  6-C , 14-H ) :  -0.1374 B(  6-C , 17-H ) :   0.2446 
B(  6-C , 18-H ) :   0.2413 B(  6-C , 23-H ) :  -0.1110 B(  7-C ,  9-C ) :   1.1088 
B(  7-C , 20-H ) :   0.7255 B(  8-C , 10-C ) :   0.8996 B(  8-C , 21-H ) :   0.6894 
B(  9-C , 17-H ) :  -0.0593 B(  9-C , 20-H ) :  -0.0794 B(  9-C , 23-H ) :   0.7469 
B( 10-C , 11-C ) :   0.8545 B( 10-C , 21-H ) :  -0.0717 B( 10-C , 27-H ) :  -0.0683 
B( 12-H , 15-H ) :   0.2788 B( 12-H , 16-H ) :   0.4910 B( 12-H , 25-H ) :  -0.2248 
B( 13-H , 22-H ) :   0.7802 B( 15-H , 25-H ) :  -0.1573 B( 16-H , 25-H ) :  -0.1475 
B( 17-H , 18-H ) :   0.4067 B( 19-H , 24-H ) :   0.8176 B( 26-H , 27-H ) :  -0.0611 



                     *******************************
                     * LOEWDIN POPULATION ANALYSIS *
                     *******************************

----------------------
LOEWDIN ATOMIC CHARGES
----------------------
   0 O :   -0.239019
   1 O :   -0.392395
   2 N :   -0.262275
   3 C :   -0.102990
   4 C :   -0.061622
   5 C :   -0.224051
   6 C :   -0.109866
   7 C :   -0.034158
   8 C :   -0.181811
   9 C :   -0.255386
  10 C :   -0.125796
  11 C :    0.126480
  12 H :    0.238823
  13 H :   -0.052674
  14 H :    0.091799
  15 H :    0.057587
  16 H :    0.158163
  17 H :    0.266514
  18 H :    0.258633
  19 H :   -0.000442
  20 H :    0.076569
  21 H :    0.098137
  22 H :    0.036240
  23 H :    0.068487
  24 H :    0.001702
  25 H :    0.167799
  26 H :    0.140300
  27 H :    0.089228
  28 H :    0.166026

-------------------------------
LOEWDIN REDUCED ORBITAL CHARGES
-------------------------------
  0 O s       :     3.498624  s :     3.498624
      pz      :     1.823786  p :     4.697888
      px      :     1.597154
      py      :     1.276947
      dz2     :     0.006202  d :     0.042507
      dxz     :     0.003070
      dyz     :     0.004325
      dx2y2   :     0.006072
      dxy     :     0.022839

  1 O s       :     3.596658  s :     3.596658
      pz      :     1.578699  p :     4.749239
      px      :     1.422179
      py      :     1.748362
      dz2     :     0.005913  d :     0.046498
      dxz     :     0.012046
      dyz     :     0.000490
      dx2y2   :     0.017885
      dxy     :     0.010164

  2 N s       :     3.092177  s :     3.092177
      pz      :     1.808975  p :     4.116506
      px      :     1.133480
      py      :     1.174051
      dz2     :     0.003588  d :     0.053591
      dxz     :     0.010501
      dyz     :     0.000285
      dx2y2   :     0.016022
      dxy     :     0.023196

  3 C s       :     2.864433  s :     2.864433
      pz      :     1.108964  p :     3.132729
      px      :     0.993637
      py      :     1.030128
      dz2     :     0.006566  d :     0.105828
      dxz     :     0.007177
      dyz     :     0.023536
      dx2y2   :     0.033495
      dxy     :     0.035054

  4 C s       :     2.901312  s :     2.901312
      pz      :     0.994252  p :     3.072404
      px      :     1.054770
      py      :     1.023382
      dz2     :     0.006162  d :     0.087906
      dxz     :     0.011649
      dyz     :     0.016302
      dx2y2   :     0.024333
      dxy     :     0.029461

  5 C s       :     2.901715  s :     2.901715
      pz      :     1.259743  p :     3.243230
      px      :     0.921480
      py      :     1.062007
      dz2     :     0.006202  d :     0.079106
      dxz     :     0.002952
      dyz     :     0.012885
      dx2y2   :     0.034732
      dxy     :     0.022334

  6 C s       :     2.891917  s :     2.891917
      pz      :     1.262177  p :     3.113890
      px      :     0.738197
      py      :     1.113516
      dz2     :     0.008221  d :     0.104059
      dxz     :     0.003696
      dyz     :     0.027217
      dx2y2   :     0.042778
      dxy     :     0.022146

  7 C s       :     2.889610  s :     2.889610
      pz      :     0.947178  p :     3.048015
      px      :     1.045328
      py      :     1.055509
      dz2     :     0.005623  d :     0.096533
      dxz     :     0.018272
      dyz     :     0.016395
      dx2y2   :     0.024590
      dxy     :     0.031652

  8 C s       :     2.894185  s :     2.894185
      pz      :     1.099002  p :     3.203870
      px      :     1.082741
      py      :     1.022128
      dz2     :     0.005582  d :     0.083756
      dxz     :     0.003617
      dyz     :     0.023341
      dx2y2   :     0.025221
      dxy     :     0.025994

  9 C s       :     2.873056  s :     2.873056
      pz      :     1.281955  p :     3.302523
      px      :     1.012411
      py      :     1.008157
      dz2     :     0.006450  d :     0.079807
      dxz     :     0.010637
      dyz     :     0.007547
      dx2y2   :     0.021119
      dxy     :     0.034054

 10 C s       :     2.861824  s :     2.861824
      pz      :     1.193447  p :     3.136804
      px      :     0.906072
      py      :     1.037285
      dz2     :     0.009304  d :     0.127168
      dxz     :     0.027172
      dyz     :     0.010704
      dx2y2   :     0.042012
      dxy     :     0.037976

 11 C s       :     2.846074  s :     2.846074
      pz      :     0.903664  p :     2.777799
      px      :     0.956222
      py      :     0.917913
      dz2     :     0.014629  d :     0.249647
      dxz     :     0.043357
      dyz     :     0.027706
      dx2y2   :     0.058044
      dxy     :     0.105911

 12 H s       :     0.683557  s :     0.683557
      pz      :     0.000816  p :     0.077620
      px      :     0.023375
      py      :     0.053429

 13 H s       :     1.038270  s :     1.038270
      pz      :     0.000418  p :     0.014404
      px      :     0.011244
      py      :     0.002743

 14 H s       :     0.864761  s :     0.864761
      pz      :     0.008554  p :     0.043440
      px      :     0.014687
      py      :     0.020199

 15 H s       :     0.889362  s :     0.889362
      pz      :     0.014879  p :     0.053051
      px      :     0.025957
      py      :     0.012214

 16 H s       :     0.797692  s :     0.797692
      pz      :     0.000099  p :     0.044146
      px      :     0.028518
      py      :     0.015529

 17 H s       :     0.675012  s :     0.675012
      pz      :     0.010650  p :     0.058474
      px      :     0.018193
      py      :     0.029631

 18 H s       :     0.688525  s :     0.688525
      pz      :     0.008415  p :     0.052842
      px      :     0.015877
      py      :     0.028549

 19 H s       :     0.984043  s :     0.984043
      pz      :     0.010121  p :     0.016399
      px      :     0.003359
      py      :     0.002919

 20 H s       :     0.884122  s :     0.884122
      pz      :     0.007598  p :     0.039309
      px      :     0.014228
      py      :     0.017483

 21 H s       :     0.854103  s :     0.854103
      pz      :     0.010203  p :     0.047760
      px      :     0.025559
      py      :     0.011997

 22 H s       :     0.942464  s :     0.942464
      pz      :     0.000518  p :     0.021296
      px      :     0.016188
      py      :     0.004590

 23 H s       :     0.884705  s :     0.884705
      pz      :     0.015232  p :     0.046808
      px      :     0.007416
      py      :     0.024160

 24 H s       :     0.981771  s :     0.981771
      pz      :     0.010259  p :     0.016527
      px      :     0.003395
      py      :     0.002873

 25 H s       :     0.782645  s :     0.782645
      pz      :     0.000523  p :     0.049556
      px      :     0.016932
      py      :     0.032101

 26 H s       :     0.769804  s :     0.769804
      pz      :     0.028391  p :     0.089896
      px      :     0.013354
      py      :     0.048151

 27 H s       :     0.818531  s :     0.818531
      pz      :     0.032020  p :     0.092242
      px      :     0.031022
      py      :     0.029200

 28 H s       :     0.714387  s :     0.714387
      pz      :     0.029289  p :     0.119587
      px      :     0.046638
      py      :     0.043660


---------------------------------
LOEWDIN BOND ORDERS (THRESH 0.050000)
---------------------------------
B(  0-O ,  1-O ) :   0.1478 B(  0-O , 10-C ) :   0.0782 B(  0-O , 11-C ) :   1.2047 
B(  0-O , 28-H ) :   1.0072 B(  1-O , 10-C ) :   0.1345 B(  1-O , 11-C ) :   1.8715 
B(  2-N ,  8-C ) :   0.0804 B(  2-N , 10-C ) :   1.1451 B(  2-N , 11-C ) :   0.0802 
B(  2-N , 25-H ) :   0.0589 B(  2-N , 26-H ) :   0.9611 B(  2-N , 27-H ) :   0.9807 
B(  3-C ,  4-C ) :   1.1911 B(  3-C ,  5-C ) :   1.1032 B(  3-C ,  6-C ) :   0.0946 
B(  3-C ,  7-C ) :   0.0587 B(  3-C ,  8-C ) :   1.5038 B(  3-C , 10-C ) :   0.0919 
B(  4-C ,  5-C ) :   0.0916 B(  4-C ,  6-C ) :   1.5971 B(  4-C ,  7-C ) :   0.0811 
B(  4-C ,  8-C ) :   0.0873 B(  4-C ,  9-C ) :   0.1235 B(  4-C , 14-H ) :   0.9068 
B(  4-C , 17-H ) :   0.0534 B(  5-C ,  7-C ) :   1.5892 B(  5-C ,  8-C ) :   0.1014 
B(  5-C ,  9-C ) :   0.1416 B(  5-C , 12-H ) :   0.1288 B(  5-C , 15-H ) :   0.7761 
B(  6-C ,  7-C ) :   0.0816 B(  6-C ,  9-C ) :   1.2096 B(  6-C , 17-H ) :   0.4700 
B(  6-C , 18-H ) :   0.4737 B(  7-C ,  9-C ) :   1.3950 B(  7-C , 20-H ) :   0.9169 
B(  8-C ,  9-C ) :   0.0628 B(  8-C , 10-C ) :   1.2909 B(  8-C , 11-C ) :   0.0828 
B(  8-C , 21-H ) :   0.8599 B(  9-C , 23-H ) :   0.9374 B( 10-C , 11-C ) :   1.3150 
B( 10-C , 21-H ) :   0.0503 B( 11-C , 28-H ) :   0.0527 B( 12-H , 15-H ) :   0.1592 
B( 12-H , 16-H ) :   0.3900 B( 12-H , 25-H ) :   0.2802 B( 13-H , 22-H ) :   0.9800 
B( 16-H , 25-H ) :   0.4498 B( 17-H , 18-H ) :   0.3945 B( 19-H , 24-H ) :   0.9971 


------------------------------------------
LOEWDIN REDUCED ORBITAL POPULATIONS PER MO
-------------------------------------------
THRESHOLD FOR PRINTING IS 0.1%%
                      0         1         2         3         4         5   
                 -19.11458 -19.04037 -14.29997 -10.25923 -10.22812 -10.20578
                   2.00000   2.00000   2.00000   2.00000   2.00000   2.00000
                  --------  --------  --------  --------  --------  --------
 0 O  s              99.9       0.0       0.0       0.0       0.0       0.0
 1 O  s               0.0      99.9       0.0       0.0       0.0       0.0
 1 O  px              0.0       0.0       0.0       0.0       0.3       0.0
 2 N  s               0.0       0.0      99.7       0.0       0.0       0.0
 3 C  px              0.0       0.0       0.0       0.0       0.0       0.2
 4 C  s               0.0       0.0       0.0       0.0       0.0      99.4
 4 C  py              0.0       0.0       0.0       0.2       0.0       0.0
 6 C  s               0.0       0.0       0.0      99.4       0.0       0.0
 6 C  py              0.0       0.0       0.0       0.0       0.0       0.2
 9 C  py              0.0       0.0       0.0       0.1       0.0       0.0
10 C  py              0.0       0.0       0.0       0.0       0.2       0.0
11 C  s               0.0       0.0       0.0       0.0      99.2       0.0

                      6         7         8         9        10        11   
                 -10.19319 -10.18246 -10.18128 -10.17037 -10.17034 -10.14162
                   2.00000   2.00000   2.00000   2.00000   2.00000   2.00000
                  --------  --------  --------  --------  --------  --------
 2 N  px              0.0       0.0       0.0       0.0       0.2       0.0
 3 C  s               0.0       0.5      98.9       0.0       0.0       0.0
 3 C  py              0.0       0.1       0.0       0.0       0.0       0.2
[...]
 24 H      0.9963     1.0000     0.0037     1.0008     1.0008     0.0000
 25 H      0.8803     1.0000     0.1197     0.9352     0.9352     0.0000
 26 H      0.7187     1.0000     0.2813     0.9325     0.9325     0.0000
 27 H      0.7943     1.0000     0.2057     0.9351     0.9351     0.0000
 28 H      0.6948     1.0000     0.3052     0.9356     0.9356     0.0000

  Mayer bond orders larger than 0.100000
B(  0-O , 11-C ) :   0.9338 B(  0-O , 28-H ) :   0.8602 B(  1-O , 11-C ) :   1.6051 
B(  2-N , 10-C ) :   0.8388 B(  2-N , 26-H ) :   0.8681 B(  2-N , 27-H ) :   0.9006 
B(  3-C ,  4-C ) :   1.2186 B(  3-C ,  5-C ) :   1.0178 B(  3-C ,  8-C ) :   1.4089 
B(  4-C ,  6-C ) :   1.4583 B(  4-C , 14-H ) :   0.9229 B(  5-C ,  7-C ) :   1.5462 
B(  5-C , 12-H ) :   0.1224 B(  5-C , 15-H ) :   0.7302 B(  6-C ,  9-C ) :   1.0936 
B(  6-C , 17-H ) :   0.4455 B(  6-C , 18-H ) :   0.4453 B(  7-C ,  9-C ) :   1.3968 
B(  7-C , 20-H ) :   0.9362 B(  8-C , 10-C ) :   1.2665 B(  8-C , 21-H ) :   0.8808 
B(  9-C , 23-H ) :   0.9379 B( 10-C , 11-C ) :   1.2856 B( 12-H , 15-H ) :   0.1795 
B( 12-H , 16-H ) :   0.4117 B( 12-H , 25-H ) :   0.2110 B( 13-H , 22-H ) :   0.9669 
B( 16-H , 25-H ) :   0.4023 B( 17-H , 18-H ) :   0.4148 B( 19-H , 24-H ) :   0.9962 


-------
TIMINGS
-------

Total SCF time: 0 days 0 hours 2 min 10 sec 

Total time                  ....     130.135 sec
Sum of individual times     ....     124.134 sec  ( 95.4%)

SCF preparation             ....       0.362 sec  (  0.3%)
Fock matrix formation       ....     122.777 sec  ( 94.3%)
  Startup                   ....       0.011 sec  (  0.0% of F)
  Split-RI-J                ....      11.154 sec  (  9.1% of F)
  Chain of spheres X        ....     100.049 sec  ( 81.5% of F)
  XC integration            ....      17.290 sec  ( 14.1% of F)
    XC Preparation          ....       0.000 sec  (  0.0% of XC)
    Basis function eval.    ....       6.843 sec  ( 39.6% of XC)
    Density eval.           ....       3.632 sec  ( 21.0% of XC)
    XC-Functional eval.     ....       1.039 sec  (  6.0% of XC)
    XC-Potential eval.      ....       4.582 sec  ( 26.5% of XC)
Diagonalization             ....       0.000 sec  (  0.0%)
Density matrix formation    ....       0.089 sec  (  0.1%)
Total Energy calculation    ....       0.041 sec  (  0.0%)
Population analysis         ....       0.255 sec  (  0.2%)
Orbital Transformation      ....       0.040 sec  (  0.0%)
Orbital Orthonormalization  ....       0.000 sec  (  0.0%)
DIIS solution               ....       0.214 sec  (  0.2%)
  MO trafo                  ....       0.000 sec  (  0.0 % of DIIS)
  Orb grad                  ....       0.000 sec  (  0.0 % of DIIS)
  Energy W gradient         ....       0.000 sec  (  0.0 % of DIIS)
  DIIS error                ....       0.045 sec  ( 21.0 % of DIIS)
  DIIS work                 ....       0.138 sec  ( 64.5 % of DIIS)
  Form Q                    ....       0.000 sec  (  0.0 % of DIIS)
  Form QpQm                 ....       0.000 sec  (  0.0 % of DIIS)
  Exp/Cayley                ....       0.000 sec  (  0.0 % of DIIS)
  Orb update                ....       0.000 sec  (  0.0 % of DIIS)
  Wake-sleep                ....       0.007 sec  (  3.1 % of DIIS)
SOSCF solution              ....       0.356 sec  (  0.3%)
  MO trafo                  ....       0.089 sec  ( 24.9 % of SOSCF)
  Orb grad                  ....       0.011 sec  (  3.0 % of SOSCF)
  Rot update                ....       0.066 sec  ( 18.5 % of SOSCF)
  Step                      ....       0.177 sec  ( 49.6 % of SOSCF)
Finished LeanSCF after 130.2 sec

Maximum memory used throughout the entire LEANSCF-calculation: 28.6 MB


-------------------------------------------------------------------------------
                          DFT DISPERSION CORRECTION                            
                                                                               
                              DFTD3 V3.1  Rev 1                                
                          USING Becke-Johnson damping                          
-------------------------------------------------------------------------------
The B3LYP functional is recognized
Active option DFTDOPT                   ...         4   

molecular C6(AA) [au] = 7308.439612 


            DFT-D V3
 parameters
 s6 scaling factor         :     1.0000 
 a1 scaling factor         :     0.3981 
 s8 scaling factor         :     1.9889 
 a2 scaling factor         :     4.4211 
 ad hoc parameters k1-k3   :    16.0000     1.3333    -4.0000 

 Edisp/kcal,au: -29.427556942609  -0.046895792048 
 E6   /kcal   : -14.317973603 
 E8   /kcal   : -15.109583340 
 % E8         :  51.345014366 

-------------------------   ----------------
Dispersion correction           -0.046895792
-------------------------   ----------------


-------------------------   --------------------
FINAL SINGLE POINT ENERGY      -557.496715265499
-------------------------   --------------------



           ************************************************************
           *        Program running with 2 parallel MPI-processes     *
           *              working on a common directory               *
           ************************************************************
------------------------------------------------------------------------------
                            ORCA SCF RESPONSE CALCULATION
------------------------------------------------------------------------------

GBWName                                 ... /kaggle/working/Cha-2/Cha_InterFrag.gbw
Number of atoms                         ...     29
Number of basis functions               ...    253
Max core memory                         ...   3000 MB

Electric field perturbation             ... YES
Quadrupolar field perturbation          ...  NO
Magnetic field perturbation (no GIAO)   ...  NO
Magnetic field perturbation (with GIAO) ...  NO
Linear momentum (velocity) perturbation ...  NO
Spin-orbit coupling perturbation        ...  NO
Choice of electric origin               ... Center of mass
Position of electric origin             ...     6.196412     0.020738     0.025675
Choice of magnetic origin               ... GIAO
Position of magnetic origin             ...     0.000000     0.000000     0.000000
Nuclear geometric perturbations         ...  NO (  87 perturbations)
Nucleus-orbit perturbations             ...  NO (   0 perturbations)
Spin-dipole/Fermi contact perturbations ...  NO (   0 perturbations)

Total number of real perturbations      ...      3
Total number of imaginary perturbations ...      0
Total number of triplet perturbations   ...      0
Total number of SOC perturbations       ...      0

Using XC Grid                  ... (/kaggle/working/Cha-2/Cha_InterFrag.grid_cpscf.tmp) 
Recalculating density on grid  ... (/kaggle/working/Cha-2/Cha_InterFrag.grho_cpscf0.tmp) done
Calculating the xc-kernel      ... (/kaggle/working/Cha-2/Cha_InterFrag.fxc_cpscf0.tmp) done

                                **********************
                                * REAL PERTURBATIONS *
                                **********************



-------------------
SHARK CP-SCF DRIVER
-------------------

Dimension of the orbital basis          ...    253
Dimension of the CPSCF-problem          ...   9682
Number of operators                     ...      1
Max. number of iterations               ...    128
Convergence Tolerance                   ... 1.0e-04
Number of perturbations                 ...      3
Perturbation type                       ... REAL

----------------------------
POPLE LINEAR EQUATION SOLVER
----------------------------

  ITERATION   0:   ||err||_max =   1.2757e+02 (   2.6 sec   0/  3 done)
  ITERATION   1:   ||err||_max =   6.9712e+00 (   2.3 sec   0/  3 done)
  ITERATION   2:   ||err||_max =   7.2418e+00 (   2.3 sec   0/  3 done)
  ITERATION   3:   ||err||_max =   3.9899e+00 (   2.3 sec   0/  3 done)
  ITERATION   4:   ||err||_max =   3.0824e+00 (   2.4 sec   0/  3 done)
  ITERATION   5:   ||err||_max =   1.8294e+00 (   2.4 sec   0/  3 done)
  ITERATION   6:   ||err||_max =   8.9536e-01 (   2.3 sec   0/  3 done)
  ITERATION   7:   ||err||_max =   3.7238e-01 (   2.4 sec   0/  3 done)
  ITERATION   8:   ||err||_max =   2.0477e-01 (   2.4 sec   0/  3 done)
  ITERATION   9:   ||err||_max =   8.7302e-02 (   2.4 sec   0/  3 done)
  ITERATION  10:   ||err||_max =   4.5252e-02 (   2.3 sec   0/  3 done)
  ITERATION  11:   ||err||_max =   1.7997e-02 (   2.3 sec   0/  3 done)
  ITERATION  12:   ||err||_max =   7.1186e-03 (   2.4 sec   0/  3 done)
  ITERATION  13:   ||err||_max =   3.2435e-03 (   2.4 sec   0/  3 done)
  ITERATION  14:   ||err||_max =   1.4385e-03 (   2.3 sec   0/  3 done)
  ITERATION  15:   ||err||_max =   6.1134e-04 (   2.4 sec   1/  3 done)
  ITERATION  16:   ||err||_max =   1.9767e-04 (   2.1 sec   1/  3 done)
  ITERATION  17:   ||err||_max =   6.3017e-05 (   2.2 sec   3/  3 done)

CP-SCF equations solved in  42.2 sec
Response densities calculated in   0.0 sec

Maximum memory used throughout the entire SCFRESP-calculation: 32.6 MB


           ************************************************************
           *        Program running with 2 parallel MPI-processes     *
           *              working on a common directory               *
           ************************************************************

------------------------------------------------------------------------------
                              ORCA PROPERTY CALCULATIONS
------------------------------------------------------------------------------

GBWName                                 ... /kaggle/working/Cha-2/Cha_InterFrag.gbw
Number of atoms                         ...     29
Number of basis functions               ...    253
Max core memory                         ...   3000 MB

Electric properties:
Dipole moment                           ... YES
Quadrupole moment                       ...  NO
Static polarizability (Dipole/Dipole)   ... YES
Static polarizability (Dipole/Quad.)    ...  NO
Static polarizability (Quad./Quad.)     ...  NO
Static polarizability (Velocity)        ...  NO
Static hyperpolarizability              ...  NO

Atomic electric properties:
Dipole moment                           ...  NO
Quadrupole moment                       ...  NO
Static polarizability                   ...  NO

Choice of electric origin               ... Center of mass
Position of electric origin             ...     6.196412     0.020738     0.025675

General magnetic properties:
Magnetizability                         ...  NO

EPR properties:
g-Tensor (aka g-matrix)                 ...  NO
Zero-Field splitting spin-orbit         ...  NO
Zero-field splitting spin-spin          ...  NO
Hyperfine couplings                     ...  NO (   0 nuclei)
Quadrupole couplings                    ...  NO (   0 nuclei)
Contact density                         ...  NO (   0 nuclei)

NMR properties:
Chemical shifts                         ...  NO (   0 nuclei)
Spin-rotation constants                 ...  NO (   0 nuclei)
Spin-spin couplings                     ...  NO (   0 nuclei,    0 pairs)

Choice of magnetic origin               ... GIAO
Position of magnetic origin             ...     0.000000     0.000000     0.000000

Properties with geometric perturbations:
SCF Hessian                             ...  NO
IR spectrum                             ...  NO
VCD spectrum                            ...  NO
X-ray spectroscopy properties:
SCF XES/XAS/RIXS spectra                ...  NO

SCF SOC stabilization energy            ...  NO
Diagonal Born-Oppenheimer correction    ...  NO

-------------
DIPOLE MOMENT
-------------

Method             : SCF
Type of density    : Electron Density
Multiplicity       :   1
Irrep              :   0
Energy             :  -557.4498194734516119 Eh
Basis              : AO
                                X                 Y                 Z
Electronic contribution:      0.772998592      16.217618371       0.396826392
Nuclear contribution   :     -0.134474959     -19.494278871      -0.420502693
                        -----------------------------------------
Total Dipole Moment    :      0.638523633      -3.276660500      -0.023676302
                        -----------------------------------------
Magnitude (a.u.)       :      3.338379402
Magnitude (Debye)      :      8.485486087



--------------------
Rotational spectrum 
--------------------
 
Rotational constants in cm-1:             0.062609             0.012695             0.010564 
Rotational constants in MHz :          1876.956887           380.576989           316.692367 

Dipole components along the rotational axes: 
x,y,z [a.u.] :    -3.097663     1.244021    -0.040901 
x,y,z [Debye]:    -7.873634     3.162050    -0.103961 

 

Dipole moment calculation done in   0.0 sec 


---------------------------------------------------
STATIC POLARIZABILITY TENSOR (Dipole/Dipole)
---------------------------------------------------

Method             : SCF
Type of density    : Electron Density
Type of derivative : Electric Field (Direction=X)
Multiplicity       :   1
Irrep              :   0
Basis              : AO

The raw cartesian tensor (atomic units):
     225.499339069        25.446318201        -1.744649951  
      25.446318201       304.112285954        -3.913903207  
      -1.744649951        -3.913903207        44.120843960  
diagonalized tensor: 
      44.051578872       217.983353337       311.697536774  

Orientation: 
       0.007607964        -0.958975254        -0.283387687  
       0.014303564         0.283471258        -0.958874055  
       0.999868755         0.003241625         0.015873403  

Isotropic polarizability : 191.24416


Polarizability tensor calculation done in   0.0 sec 

Maximum memory used throughout the entire PROP-calculation: 15.0 MB

--------------------------------
SUGGESTED CITATIONS FOR THIS RUN
--------------------------------

Below you find a list of papers that are relevant to this ORCA run
We neither can nor want to force you to cite these papers, but we appreciate if you do
You receive ORCA, which is the product of decades of hard work by many enthusiastic individuals, for free
The only thing we kindly ask in return is that you cite our papers,
We deeply appreciate it, if you show your appreciation for ORCA by not just citing the generic ORCA reference.

Please note that relegating all ORCA citations to the supporting information does *not* help us.
SI sections are not indexed - citations you put there will not count into any citation statistics
But we need these citations in order to attract the funding resources that allow us to do what we are doing

Therefore, if you are a happy ORCA user, please consider citing a few of the papers listed below in the main body of your paper

In addition to the list printed below, the program has created the file /kaggle/working/Cha-2/Cha_InterFrag.bibtex that contains the list in bibtex format
You can import this file easily into all common literature databanks and citation aid programs

It goes without saying that in many instances, there are alternative algorithms to achieve similar
results as the ones you have gotten from ORCA. It is, of course, also the case that in some instances
ORCA just re-implements algorithms worked out by others. We are fully aware of that and we are also
fully appreciative of our colleagues work. Hence this citation list should not be read as indicating
that the listed papers, which are focused on our own work, are the only ones worth citing. It simply
meant to make it easier for users to cite ORCA specific papers. It is not a substitute for doing your
own literature research and citing the relevant literature in a scientifically appropriate manner.

List of essential papers. We consider these as the minimum necessary citations

  1. Neese, F.
     Software update: the ORCA program system, version 6.0
     WIRES Comput. Molec. Sci. 2025 15(1), e70019
     doi.org/10.1002/wcms.70019

List of papers to cite with high priority. The work reported in these papers was absolutely
necessary for this run to complete.
Our perspective: the developers of density functionals and basis sets usually get cited in chemistry papers
Good! But without the algorithms to do something with them, the functionals or basis sets would not do anything.
Hence, in our opinion, the algorithm design and method developments papers are equally worthy of getting cited

  1. Neese, F.
     An improvement of the resolution of the identity approximation for the formation of the Coulomb matrix
     J. Comp. Chem. 2003 24(14), 1740-1747
     doi.org/10.1002/jcc.10318
  2. Neese, F.; Wennmohs, F.; Hansen, A.; Becker, U.
     Efficient, approximate and parallel Hartree-Fock and hybrid DFT calculations. A 'chain-of-spheres' algorithm for the Hartree-Fock exchange
     Chem. Phys. 2009 356(1-3), 98-109
     doi.org/10.1016/j.chemphys.2008.10.036
  3. Grimme, S.; Antony, J.; Ehrlich, S.; Krieg, H.
     A consistent and accurate ab initio parametrization of density functional dispersion correction (DFT-D) for the 94 elements H-Pu
     J. Chem. Phys. 2010 132 , 154104
     doi.org/10.1063/1.3382344
  4. Grimme, S.; Ehrlich, S.; Goerigk, L.
     Effect of the damping function in dispersion corrected density functional theory
     J. Comput. Chem. 2011 32(7), 1456-1465
     doi.org/10.1002/jcc.21759
  5. Helmich-Paris, B.; de Souza, B.; Neese, F.; Izsák, R.
     An improved chain of spheres for exchange algorithm
     J. Chem. Phys. 2021 155(10), 104109
     doi.org/10.1063/5.0058766
  6. Neese, F.
     The SHARK Integral Generation and Digestion System
     J. Comp. Chem. 2022 44(3), 381
     doi.org/10.1002/jcc.26942

List of suggested additional citations. These are papers that are important in the 'surrounding' of 
of this run, or papers that preceded the highly important papers. If you like your results we are grateful for a citation.

  1. Izsak, R.; Neese, F.
     An overlap fitted chain of spheres exchange method
     J. Chem. Phys. 2011 135 , 144105
     doi.org/10.1063/1.3646921
  2. Izsak, R.; Hansen, A.; Neese, F.
     The resolution of identity and chain of spheres approximations for the LPNO-CCSD singles Fock term
     Molec. Phys. 2012 110 , 2413-2417
     doi.org/10.1080/00268976.2012.687466
  3. Neese, F.
     The ORCA program system
     WIRES Comput. Molec. Sci. 2012 2(1), 73-78
     doi.org/10.1002/wcms.81
  4. Izsak, R.; Neese, F.; Klopper, W.
     Robust fitting techniques in the chain of spheres approximation to the Fock exchange: The role of the complementary space
     J. Chem. Phys. 2013 139 , 
     doi.org/10.1063/1.4819264
  5. Neese, F.
     Software update: the ORCA program system, version 4.0
     WIRES Comput. Molec. Sci. 2018 8(1), 1-6
     doi.org/10.1002/wcms.1327
  6. Neese, F.; Wennmohs, F.; Becker, U.; Riplinger, C.
     The ORCA quantum chemistry program package
     J. Chem. Phys. 2020 152(22), 224108
     doi.org/10.1063/5.0004608
  7. Neese, F.
     Software update: The ORCA program system—Version 5.0
     WIRES Comput. Molec. Sci. 2022 12(1), e1606
     doi.org/10.1002/wcms.1606

List of optional additional citations

  1. Neese, F.
     Approximate second-order SCF convergence for spin unrestricted wavefunctions
     Chem. Phys. Lett. 2000 325(1-3), 93-98
     doi.org/10.1016/s0009-2614(00)00662-x

Timings for individual modules:

Sum of individual times          ...      177.555 sec (=   2.959 min)
Startup calculation              ...        2.868 sec (=   0.048 min)   1.6 %
SCF iterations                   ...      131.374 sec (=   2.190 min)  74.0 %
SCF Response                     ...       42.896 sec (=   0.715 min)  24.2 %
Property calculations            ...        0.416 sec (=   0.007 min)   0.2 %
                             ****ORCA TERMINATED NORMALLY****
TOTAL RUN TIME: 0 days 0 hours 2 minutes 58 seconds 41 msec
