
                                 *****************
                                 * O   R   C   A *
                                 *****************

                                            #,                                       
                                            ###                                      
                                            ####                                     
                                            #####                                    
                                            ######                                   
                                           ########,                                 
                                     ,,################,,,,,                         
                               ,,#################################,,                 
                          ,,##########################################,,             
                       ,#########################################, ''#####,          
                    ,#############################################,,   '####,        
                  ,##################################################,,,,####,       
                ,###########''''           ''''###############################       
              ,#####''   ,,,,##########,,,,          '''####'''          '####       
            ,##' ,,,,###########################,,,                        '##       
           ' ,,###''''                  '''############,,,                           
         ,,##''                                '''############,,,,        ,,,,,,###''
      ,#''                                            '''#######################'''  
     '                                                          ''''####''''         
             ,#######,   #######,   ,#######,      ##                                
            ,#'     '#,  ##    ##  ,#'     '#,    #''#        ,####,    ,#,          
            ##       ##  ##   ,#'  ##            #'  '#       #'       ,# #          
            ##       ##  #######   ##           ,######,      #####,      #          
            '#,     ,#'  ##    ##  '#,     ,#' ,#      #,     #,   #      #          
             '#######'   ##     ##  '#######'  #'      '#     '####' #    #          



                #########################################################
                #                        -***-                          #
                #          Department of theory and spectroscopy        #
                #                                                       #
                #                      Frank Neese                      #
                #                                                       #
                #     Directorship, Architecture, Infrastructure        #
                #                    SHARK, DRIVERS                     #
                #        Core code/Algorithms in most modules           #
                #                                                       #
                #        Max Planck Institute fuer Kohlenforschung      #
                #                Kaiser Wilhelm Platz 1                 #
                #                 D-45470 Muelheim/Ruhr                 #
                #                      Germany                          #
                #                                                       #
                #                  All rights reserved                  #
                #                        -***-                          #
                #########################################################


                         Program Version 6.1.1  -  RELEASE   -
                                (GIT: $487d211c$)
                          ($2025-11-21 10:33:24 +0100$)
                                                                         
                                  - NO-DMRG VERSION -                    
                                                                         


 With contributions from (in alphabetic order):
[Max-Planck-Institut fuer Kohlenforschung]                               
  Daniel Aravena         : Magnetic Suceptibility                        
  Michael Atanasov       : Ab Initio Ligand Field Theory (pilot matlab implementation)
  Alexander A. Auer      : GIAO ZORA, VPT2 properties, NMR spectrum      
  Ute Becker             : All parallelization in ORCA, NUMFREQ, NUMCALC 
  Giovanni Bistoni       : ED, misc. LED, open-shell LED, HFLD           
  Dmytro Bykov           : pre 5.0 version of the SCF Hessian            
  Marcos Casanova-Páez   : Triplet and SCS-CIS(D). UHF-(DLPNO)-IP/EA/STEOM-CCSD. UHF-CVS-IP/STEOM-CCSD   
  Vijay G. Chilkuri      : MRCI spin determinant printing, contributions to CSF-ICE 
  Pauline Colinet        : FMM embedding                                 
  Dipayan Datta          : RHF DLPNO-CCSD density                        
  Achintya Kumar Dutta   : EOM-CC, STEOM-CC                              
  Nicolas Foglia         : Exact transition moments, OPA infrastructure, MCD improvements    
  Dmitry Ganyushin       : Spin-Orbit,Spin-Spin,Magnetic field MRCI      
  Miquel Garcia-Rates    : C-PCM and meta-GGA Hessian, CCSD/C-PCM, Gaussian charge scheme 
  Tiago L. C. Gouveia    : GS-ROHF, GS-ROCIS                             
  Yang Guo               : DLPNO-NEVPT2, F12-NEVPT2, CIM, IAO-localization        
  Andreas Hansen         : Spin unrestricted coupled pair/coupled cluster methods 
  Ingolf Harden          : AUTO-CI MPn and infrastructure                
  Benjamin Helmich-Paris : MC-RPA, TRAH-(SCF,CASSCF), AVAS, COSX integrals, SCF dyn. polar., MC-PDFT, srDFT 
  Lee Huntington         : MR-EOM, pCC                                   
  Robert Izsak           : Overlap fitted RIJCOSX, COSX-SCS-MP3, EOM     
  Riya Kayal             : Wick's Theorem for AUTO-CI, AUTO-CI UHF-CCSDT 
  Emily Kempfer          : AUTO-CI RHF CISDT and CCSDT, approximate NEVPT4
  Christian Kollmar      : KDIIS, OOCD, Brueckner-CCSD(T), CCSD density, CASPT2, CASPT2-K, improved NEVPT2 
  Axel Koslowski         : Symmetry handling                             
  Simone Kossmann        : meta-GGA functionals, TD-DFT gradient, OOMP2, (MP2 Hessian; deprecated post 5.0) 
  Lucas Lang             : DCDCAS, Hyperfine gauge corrections, ICE-SOC+SSC
  Marvin Lechner         : AUTO-CI (C++ implementation), FIC-MRCC        
  Spencer Leger          : CASSCF response                               
  Dagmar Lenk            : GEPOL surface, SMD, ORCA-2-JSON               
  Dimitrios Liakos       : Extrapolation schemes; Compound Job, Property file
  Dimitrios Manganas     : Further ROCIS development; embedding schemes. LFT, Crystal Embedding 
  Dimitrios Pantazis     : SARC Basis sets                               
  Anastasios Papadopoulos: AUTO-CI, single reference methods and gradients 
  Taras Petrenko         : pre 6.0 DFT Hessian and TD-DFT gradient,  ECA, NRVS 
  Petra Pikulova         : Analytic Raman intensities                    
  Peter Pinski           : DLPNO-MP2, DLPNO-MP2 Gradient                 
  Shashank Vittal Rao    : ES-AILFT, MagRelax                            
  Christoph Reimann      : Effective Core Potentials                     
  Marius Retegan         : Local ZFS, SOC                                
  Christoph Riplinger    : Optimizer, TS searches, QM/MM, DLPNO-CCSD(T), (RO)-DLPNO pert. Triples 
  Michael Roemelt        : Original ROCIS implementation, recursive CI coupling coefficients
  Masaaki Saitow         : Open-shell DLPNO-CCSD energy and density      
  Barbara Sandhoefer     : DKH picture change effects                    
  Yorick L. A. Schmerwitz: GMF and freeze-and-release deltaSCF, NEB S-IDPP initial path                    
  Kantharuban Sivalingam : CASSCF convergence/infrastructure, NEVPT2, NEVPT3, NEVPT4(SD), FIC-MRCI and CEPA variants
  Bernardo de Souza      : ESD, SOC TD-DFT                               
  Georgi L. Stoychev     : AutoAux, RI-MP2 NMR, DLPNO-MP2 response, X2C  
  Van Anh Tran           : RI-MP2 g-tensors                              
  Willem Van den Heuvel  : Paramagnetic NMR                              
  Zikuan Wang            : NOTCH, Electric field optimization            
  Frank Wennmohs         : Technical directorship and infrastructure     
  Hang Xu                : AUTO-CI-Response properties                   
                                                                         
[FACCTs GmbH]                                                            
  Markus Bursch, Nicolas Foglia, Miquel Garcia-Rates, Ingolf Harden, Hagen Neugebauer, Anastasios Papadopoulos, 
  Christoph Riplinger, Bernardo de Souza, Georgi L. Stoychev                                                    
                                                                 
  APM, various basis sets, CI-OPT, improved COSX, DLPNO-Multilevel,           
  DOCKER, DRACO, updates on ESD, Fragmentator, GOAT, IRC, LR-CPCM, L-BFGS, MBIS, meta-GGA TD-DFT gradient, ML-optimized integration grids, 
  MM, NACMEs, nearIR, NEB, NEB-TS, NL-DFT gradient (VV10), 2- and 3-layer-ONIOM, interface openCOSMO-RS, QMMM,   
  Crystal-QMMM, RESP, rigid body optimization, SF, symmetry and pop. for TD-DFT, various functionals, SOLVATOR                                   
                                                                         
[Other institutions]                                                     
  V. Asgeirsson          : NEB                                           
  Christoph Bannwarth    : sTDA-DFT, sTD-DFT, PBEh-3c, B97-3c, D3        
  Giovanni Bistoni       : ETS/NOCV, ADLD/ADEX, COVALED                  
  Martin Brehm           : Molecular dynamics                            
  Ronald Cardenas        : ETS/NOCV                                      
  Martina Colucci        : COVALED                                       
  Sebastian Ehlert       : rSCAN, r2SCAN, r2SCAN-3c, D4, dhf basis sets  
  Marvin Friede          : D4 for Fr, Ra, Ac-Lr                          
  Lars Goerigk           : TD-DFT with DH, B97 family of functionals     
  Stefan Grimme          : VdW corrections, initial TS optimization, DFT functionals, gCP, sTDA/sTD-DF 
  Waldemar Hujo          : DFT-NL                                        
  H. Jonsson             : NEB                                           
  Holger Kruse           : gCP                                           
  Marcel Mueller         : wB97X-3c, vDZP basis set                      
  Hagen Neugebauer       : wr2SCAN, Native XTB                           
  Gianluca Regni         : ADLD/ADEX                                     
  Tobias Risthaus        : pre 6.0 range-separated hybrid DFT and stability analysis
  Lukas Wittmann         : regularized MP2, r2SCAN double-hybrids, wr2SCAN        
                                                                         
We gratefully acknowledge several colleagues who have allowed us to      
interface, adapt or use parts of their codes:                            
  Ed Valeev, F. Pavosevic, A. Kumar             : LibInt (2-el integral package), F12 methods 
  Garnet Chan, S. Sharma, J. Yang, R. Olivares  : DMRG                   
  Ulf Ekstrom                                   : XCFun DFT Library      
  Mihaly Kallay                                 : mrcc  (arbitrary order and MRCC methods)
  Frank Weinhold                                : gennbo (NPA and NBO analysis)           
  Simon Mueller                                 : openCOSMO-RS                            
  Christopher J. Cramer and Donald G. Truhlar   : smd solvation model                     
  S Lehtola, MJT Oliveira, MAL Marques          : LibXC Library                           
  Liviu Ungur et al                             : ANISO software                          


 Your calculation uses the libint2 library for the computation of 2-el integrals
 For citations please refer to: http://libint.valeyev.net

 Your ORCA version has been built with support for libXC version: 7.0.0
 For citations please refer to: https://libxc.gitlab.io

 This ORCA versions uses:
   CBLAS   interface :  Fast vector & matrix operations
   LAPACKE interface :  Fast linear algebra routines
   SCALAPACK package :  Parallel linear algebra routines
   Shared memory     :  Shared parallel matrices
   BLAS/LAPACK       :  OpenBLAS 0.3.29  USE64BITINT DYNAMIC_ARCH NO_AFFINITY SkylakeX SINGLE_THREADED
        Core in use  :  SkylakeX
   Copyright (c) 2011-2014, The OpenBLAS Project


  ***********************************
  * Starting time: Mon Mar  9 19:53:12 2026
  * Host name:     af656d012a52
  * Process ID:    54
  * Working dir.:  /kaggle/working
  ***********************************

NOTE: MaxCore=3000 MB was set to SCF,MP2,MDCI,CIPSI,MRCI,RASCI and CIS
      => If you want to overwrite this, your respective input block should be placed after the MaxCore statement
Your calculation utilizes the atom-pairwise dispersion correction
with the Becke-Johnson damping scheme (D3BJ)


Your calculation utilizes the SMD solvation module
Please cite in your paper:
Marenich, A. V.; Cramer, C. J.; Truhlar, D. G. J. Phys. Chem. B 2009, 113, 6378 

Warning: RI is on but no J-basis has been assigned. Assigning Def2/J (nothing to worry about!)
================================================================================

----- Orbital basis set information -----
Your calculation utilizes the basis: 6-31G(d,p)
   H-He, Li-Ne : W. J. Hehre, R. Ditchfield and J.A. Pople, J. Chem. Phys. 56, 2257 (1972).
                 Note: He and Ne are unpublished basis sets taken from the Gaussian program.
                 Note: Li and B from J. D. Dill and J. A. Pople, J. Chem. Phys. 62, 2921 (1975).
   Na - Ar     : M. M. Francl, W. J. Pietro, W. J. Hehre, J. S. Binkley, M. S. Gordon, 
                 D. J. DeFrees and J. A. Pople, J. Chem. Phys. 77, 3654 (1982).
   K - Zn      : V. A. Rassolov, J. A. Pople, M. A. Ratner, and T. L. Windus, J. Chem. Phys. 109, 1223 (1998).

----- AuxJ basis set information -----
Your calculation utilizes the auxiliary basis: def2/J
   H-Rn: F. Weigend, Phys. Chem. Chem. Phys. 8, 1057 (2006).
   Fr-Lr: K. Eichkorn, F. Weigend, O. Treutler, R. Ahlrichs; Theor. Chem. Acc. 97, 119 (1997).

================================================================================
                                        WARNINGS
                       Please study these warnings very carefully!
================================================================================


WARNING: Geometry Optimization
  ===> : Switching off AutoStart
         For restart on a previous wavefunction, please use MOREAD

================================================================================
                                       INPUT FILE
================================================================================
NAME = /kaggle/working/Ala/Ala_InterFrag.inp
|  1> 
|  2> !RKS B3LYP 6-31G(d,p) TightSCF Opt D3BJ
|  3>  
|  4> %pal nprocs 2 end
|  5> %maxcore 3000
|  6> 
|  7> %cpcm
|  8>   smd true
|  9>   SMDsolvent "WATER"
| 10>   end
| 11> 
| 12> %scf
| 13>   MaxIter 400
| 14>   SOSCF Start 0.00033
| 15>   end
| 16> end
| 17> 
| 18> %output
| 19>   PrintLevel Normal
| 20>   Print[ P_OrbEn ] 2        # print ALL orbital energies (not just up to LUMO+9) :contentReference[oaicite:10]{index=10}
| 21>   XYZFile true              # writes basename.xyz (handy for reuse) :contentReference[oaicite:11]{index=11}
| 22>   end
| 23> 
| 24> *xyz 0 1
| 25> 6       -1.428404462     -4.750331099      1.464381979
| 26> 6       -1.164740366     -6.256421373      1.655419639
| 27> 6        0.075479841     -6.451573503      2.548169697
| 28> 7       -2.332253055     -6.881494368      2.295562664
| 29> 8        0.126897779     -5.920449193      3.645491489
| 30> 8        1.149889142     -7.286556751      2.106957436
| 31> 1       -1.600897425     -4.290094145      2.426881462
| 32> 1       -2.298402007     -4.613656503      0.837951459
| 33> 1       -0.991896058     -6.716706424      0.693292128
| 34> 1       -2.159095654     -7.869391171      2.422365316
| 35> 1       -3.147020809     -6.753082049      1.711042180
| 36> 1        1.295710951     -7.987233937      2.747129069
| 37> 1       -0.570454737     -4.289138631      0.996169715
| 38> *
| 39> 
| 40>                          ****END OF INPUT****
================================================================================

                       *****************************
                       * Geometry Optimization Run *
                       *****************************

Geometry optimization settings:
Update method            Update   .... BFGS
Choice of coordinates    CoordSys .... (2022) Redundant Internals
Initial Hessian          InHess   .... Almloef's Model
Max. no of cycles        MaxIter  .... 50

Convergence Tolerances:
Energy Change            TolE     ....  5.0000e-06 Eh
Max. Gradient            TolMAXG  ....  3.0000e-04 Eh/bohr
RMS Gradient             TolRMSG  ....  1.0000e-04 Eh/bohr
Max. Displacement        TolMAXD  ....  4.0000e-03 bohr
RMS Displacement         TolRMSD  ....  2.0000e-03 bohr
Strict Convergence                .... False

------------------------------------------------------------------------------
                        ORCA OPTIMIZATION COORDINATE SETUP
------------------------------------------------------------------------------

The optimization will be done in redundant internal coordinates (2022)
Making redundant internal coordinates   ...  (2022 redundants) done
Evaluating the initial hessian          ...  (Almloef) done
Evaluating the coordinates              ...  done
Calculating the B-matrix                .... done
Calculating the G-matrix                .... done
The number of degrees of freedom        ....   49

    -----------------------------------------------------------------
                    Redundant Internal Coordinates


    -----------------------------------------------------------------
         Definition                    Initial Value    Approx d2E/dq
    -----------------------------------------------------------------
      1. B(C   1,C   0)                  1.5409         0.358933   
      2. B(C   2,C   1)                  1.5405         0.359399   
      3. B(N   3,C   1)                  1.4709         0.415704   
      4. B(O   4,C   2)                  1.2202         1.044249   
      5. B(O   5,C   2)                  1.4305         0.482305   
      6. B(H   6,C   0)                  1.0807         0.372574   
      7. B(H   7,C   0)                  1.0807         0.372566   
      8. B(H   8,C   1)                  1.0805         0.372923   
      9. B(H   9,N   3)                  1.0109         0.431214   
     10. B(H  10,N   3)                  1.0109         0.431216   
     11. B(H  11,O   5)                  0.9602         0.519526   
     12. B(H  12,C   0)                  1.0807         0.372561   
     13. A(C   1,C   0,H   7)          109.4642         0.324002   
     14. A(H   7,C   0,H  12)          109.5101         0.293972   
     15. A(C   1,C   0,H   6)          109.4593         0.324003   
     16. A(C   1,C   0,H  12)          109.5711         0.324001   
     17. A(H   6,C   0,H   7)          109.5045         0.293974   
     18. A(H   6,C   0,H  12)          109.3182         0.293973   
     19. A(C   2,C   1,N   3)          109.4490         0.365325   
     20. A(N   3,C   1,H   8)          109.4798         0.329997   
     21. A(C   2,C   1,H   8)          109.4681         0.324122   
     22. A(C   0,C   1,H   8)          109.4726         0.324053   
     23. A(C   0,C   1,N   3)          109.4813         0.365244   
     24. A(C   0,C   1,C   2)          109.4765         0.358510   
     25. A(O   4,C   2,O   5)          119.9876         0.449815   
     26. A(C   1,C   2,O   5)          119.9918         0.374777   
     27. A(C   1,C   2,O   4)          119.9960         0.429376   
     28. A(H   9,N   3,H  10)          109.5541         0.302922   
     29. A(C   1,N   3,H  10)          109.5178         0.335148   
     30. A(C   1,N   3,H   9)          109.5058         0.335148   
     31. A(C   2,O   5,H  11)          109.5340         0.354533   
     32. D(C   2,C   1,C   0,H   6)    -59.9790         0.010340   
     33. D(C   2,C   1,C   0,H   7)    179.9918         0.010340   
     34. D(N   3,C   1,C   0,H  12)    179.8695         0.010340   
     35. D(N   3,C   1,C   0,H   7)    -60.0259         0.010340   
     36. D(N   3,C   1,C   0,H   6)     60.0032         0.010340   
     37. D(C   2,C   1,C   0,H  12)     59.8873         0.010340   
     38. D(O   4,C   2,C   1,C   0)     54.5610         0.010000   
     39. D(O   5,C   2,C   1,C   0)   -127.2414         0.010000   
     40. D(O   4,C   2,C   1,H   8)    174.5641         0.010000   
     41. D(O   5,C   2,C   1,N   3)    112.7566         0.010000   
     42. D(O   4,C   2,C   1,N   3)    -65.4410         0.010000   
     43. D(H   9,N   3,C   1,H   8)     60.0728         0.014738   
     44. D(H   9,N   3,C   1,C   2)    -59.9150         0.014738   
     45. D(H  10,N   3,C   1,C   0)     59.9345         0.014738   
     46. D(H   9,N   3,C   1,C   0)   -179.9141         0.014738   
     47. D(H  10,N   3,C   1,C   2)    179.9336         0.014738   
     48. D(H  11,O   5,C   2,O   4)     56.0851         0.016691   
     49. D(H  11,O   5,C   2,C   1)   -122.1127         0.016691   
    -----------------------------------------------------------------

Number of atoms                         .... 13
Number of degrees of freedom            .... 49


         *************************************************************
         *                GEOMETRY OPTIMIZATION CYCLE   1            *
         *************************************************************
---------------------------------
CARTESIAN COORDINATES (ANGSTROEM)
---------------------------------
  C     -1.428404   -4.750331    1.464382
  C     -1.164740   -6.256421    1.655420
  C      0.075480   -6.451574    2.548170
  N     -2.332253   -6.881494    2.295563
  O      0.126898   -5.920449    3.645491
  O      1.149889   -7.286557    2.106957
  H     -1.600897   -4.290094    2.426881
  H     -2.298402   -4.613657    0.837951
  H     -0.991896   -6.716706    0.693292
  H     -2.159096   -7.869391    2.422365
  H     -3.147021   -6.753082    1.711042
  H      1.295711   -7.987234    2.747129
  H     -0.570455   -4.289139    0.996170

----------------------------
CARTESIAN COORDINATES (A.U.)
----------------------------
  NO LB      ZA    FRAG     MASS         X           Y           Z
   0 C     6.0000    0    12.011   -2.699293   -8.976825    2.767281
   1 C     6.0000    0    12.011   -2.201040  -11.822923    3.128290
   2 C     6.0000    0    12.011    0.142636  -12.191707    4.815343
   3 N     7.0000    0    14.007   -4.407320  -13.004140    4.337985
   4 O     8.0000    0    15.999    0.239802  -11.188028    6.888981
   5 O     8.0000    0    15.999    2.172976  -13.769597    3.981573
   6 H     1.0000    0     1.008   -3.025258   -8.107103    4.586141
   7 H     1.0000    0     1.008   -4.343350   -8.718547    1.583499
   8 H     1.0000    0     1.008   -1.874412  -12.692736    1.310132
   9 H     1.0000    0     1.008   -4.080099  -14.870994    4.577607
  10 H     1.0000    0     1.008   -5.947007  -12.761476    3.233401
  11 H     1.0000    0     1.008    2.448539  -15.093685    5.191322
  12 H     1.0000    0     1.008   -1.078003   -8.105297    1.882488

--------------------------------
INTERNAL COORDINATES (ANGSTROEM)
--------------------------------
 C      0   0   0     0.000000000000     0.00000000     0.00000000
 C      1   0   0     1.540883531126     0.00000000     0.00000000
 C      2   1   0     1.540530162559   109.47654476     0.00000000
 N      2   1   3     1.470913056748   109.48126782   119.98222206
 O      3   2   1     1.220185212261   119.99604251    54.56099013
 O      3   2   1     1.430461684133   119.99177204   232.75861090
 H      1   2   3     1.080729906539   109.45925061   300.02098003
 H      1   2   3     1.080736262871   109.46417692   179.99184308
 H      2   1   3     1.080475279868   109.47264057   239.99972165
 H      4   2   1     1.010941388733   109.50584059   180.08588911
 H      4   2   1     1.010940360677   109.51779465    59.93450114
 H      6   3   2     0.960225097911   109.53403103   237.88730777
 H      1   2   3     1.080739999874   109.57105836    59.88729156

---------------------------
INTERNAL COORDINATES (A.U.)
---------------------------
 C      0   0   0     0.000000000000     0.00000000     0.00000000
 C      1   0   0     2.911847878098     0.00000000     0.00000000
 C      2   1   0     2.911180108281   109.47654476     0.00000000
 N      2   1   3     2.779622844062   109.48126782   119.98222206
 O      3   2   1     2.305815883833   119.99604251    54.56099013
 O      3   2   1     2.703180828079   119.99177204   232.75861090
 H      1   2   3     2.042283548096   109.45925061   300.02098003
 H      1   2   3     2.042295559824   109.46417692   179.99184308
 H      2   1   3     2.041802373422   109.47264057   239.99972165
 H      4   2   1     1.910402362151   109.50584059   180.08588911
 H      4   2   1     1.910400419406   109.51779465    59.93450114
 H      6   3   2     1.814562461970   109.53403103   237.88730777
 H      1   2   3     2.042302621736   109.57105836    59.88729156

---------------------
BASIS SET INFORMATION
---------------------
There are 4 groups of distinct atoms

 Group   1 Type C   : 10s4p1d contracted to 3s2p1d pattern {631/31/1}
 Group   2 Type N   : 10s4p1d contracted to 3s2p1d pattern {631/31/1}
 Group   3 Type O   : 10s4p1d contracted to 3s2p1d pattern {631/31/1}
 Group   4 Type H   : 4s1p contracted to 2s1p pattern {31/1}

Atom   0C    basis set group =>   1
Atom   1C    basis set group =>   1
Atom   2C    basis set group =>   1
Atom   3N    basis set group =>   2
Atom   4O    basis set group =>   3
Atom   5O    basis set group =>   3
Atom   6H    basis set group =>   4
Atom   7H    basis set group =>   4
Atom   8H    basis set group =>   4
Atom   9H    basis set group =>   4
Atom  10H    basis set group =>   4
Atom  11H    basis set group =>   4
Atom  12H    basis set group =>   4
---------------------------------
AUXILIARY/J BASIS SET INFORMATION
---------------------------------
There are 4 groups of distinct atoms

 Group   1 Type C   : 12s5p4d2f1g contracted to 6s4p3d1f1g pattern {711111/2111/211/2/1}
 Group   2 Type N   : 12s5p4d2f1g contracted to 6s4p3d1f1g pattern {711111/2111/211/2/1}
 Group   3 Type O   : 12s5p4d2f1g contracted to 6s4p3d1f1g pattern {711111/2111/211/2/1}
 Group   4 Type H   : 5s2p1d contracted to 3s1p1d pattern {311/2/1}

Atom   0C    basis set group =>   1
Atom   1C    basis set group =>   1
Atom   2C    basis set group =>   1
Atom   3N    basis set group =>   2
Atom   4O    basis set group =>   3
Atom   5O    basis set group =>   3
Atom   6H    basis set group =>   4
Atom   7H    basis set group =>   4
Atom   8H    basis set group =>   4
Atom   9H    basis set group =>   4
Atom  10H    basis set group =>   4
Atom  11H    basis set group =>   4
Atom  12H    basis set group =>   4


           ************************************************************
           *        Program running with 2 parallel MPI-processes     *
           *              working on a common directory               *
           ************************************************************
------------------------------------------------------------------------------
                             ORCA STARTUP CALCULATIONS
                           -- RI-GTO INTEGRALS CHOSEN --
------------------------------------------------------------------------------
------------------------------------------------------------------------------
                   ___                                                        
                  /   \      - P O W E R E D   B Y -                         
                 /     \                                                     
                 |  |  |   _    _      __       _____    __    __             
                 |  |  |  | |  | |    /  \     |  _  \  |  |  /  |          
                  \  \/   | |  | |   /    \    | | | |  |  | /  /          
                 / \  \   | |__| |  /  /\  \   | |_| |  |  |/  /          
                |  |  |   |  __  | /  /__\  \  |    /   |      \           
                |  |  |   | |  | | |   __   |  |    \   |  |\   \          
                \     /   | |  | | |  |  |  |  | |\  \  |  | \   \       
                 \___/    |_|  |_| |__|  |__|  |_| \__\ |__|  \__/        
                                                                              
                      - O R C A' S   B I G   F R I E N D -                    
                                      &                                       
                       - I N T E G R A L  F E E D E R -                       
                                                                              
 v1 FN, 2020, v2 2021, v3 2022-2024                                           
------------------------------------------------------------------------------


----------------------
SHARK INTEGRAL PACKAGE
----------------------

Number of atoms                             ...     13
Number of basis functions                   ...    119
Number of shells                            ...     57
Maximum angular momentum                    ...      2
Integral batch strategy                     ... SHARK/LIBINT Hybrid
RI-J (if used) integral strategy            ... SPLIT-RIJ (Revised 2003 algorithm where possible)
Printlevel                                  ...      1
Contraction scheme used                     ... SEGMENTED contraction
Prescreening option                         ... SCHWARTZ
   Thresh                                   ... 2.500e-11
   Tcut                                     ... 2.500e-12
   Tpresel                                  ... 2.500e-12 
Coulomb Range Separation                    ... NOT USED
Exchange Range Separation                   ... NOT USED
Multipole approximations                    ... NOT USED
Finite Nucleus Model                        ... NOT USED
CABS basis                                  ... NOT available
Auxiliary Coulomb fitting basis             ... AVAILABLE
   # of basis functions in Aux-J            ...    371
   # of shells in Aux-J                     ...    125
   Maximum angular momentum in Aux-J        ...      4
Auxiliary J/K fitting basis                 ... NOT available
Auxiliary Correlation fitting basis         ... NOT available
Auxiliary 'external' fitting basis          ... NOT available

Checking pre-screening integrals            ... done (  0.0 sec) Dimension = 57
   => SHARK Basis and OBASIS are compatible. Storing Pre-screening
Shell pair information
Shell pair cut-off parameter TPreSel        ...   2.5e-12
Total number of shell pairs                 ...      1653
Shell pairs after pre-screening             ...      1582
Total number of primitive shell pairs       ...      8022
Primitive shell pairs kept                  ...      5504
          la=0 lb=0:    504 shell pairs
          la=1 lb=0:    575 shell pairs
          la=1 lb=1:    182 shell pairs
          la=2 lb=0:    188 shell pairs
          la=2 lb=1:    112 shell pairs
          la=2 lb=2:     21 shell pairs

Checking whether 4 symmetric matrices of dimension 119 fit in memory
:Max Core in MB      =   3000.00
 MB in use           =      5.51
 MB left             =   2994.49
 MB needed           =      0.22
 Data fit in memory  = YES
Calculating RI/J V-Matrix + Cholesky decomp.... done (  0.0 sec)
Calculating Nuclear repulsion               ... done (  0.0 sec) ENN=    244.993674204393 Eh

Diagonalization of the overlap matrix:
Smallest eigenvalue                        ... 4.242e-03
Time for diagonalization                   ...    0.002 sec
Threshold for overlap eigenvalues          ... 1.000e-07
Number of eigenvalues below threshold      ... 0
Time for construction of square roots      ...    0.001 sec
Total time needed                          ...    0.003 sec

-------------------
DFT GRID GENERATION
-------------------

General Integration Accuracy     IntAcc      ... 4.388
Radial Grid Type                 RadialGrid  ... OptM3 with GC (2021)
Angular Grid (max. ang.)         AngularGrid ... 4 (Lebedev-302)
Angular grid pruning method      GridPruning ... 4 (adaptive)
Weight generation scheme         WeightScheme... mBecke (2022)
Basis function cutoff            BFCut       ... 1.0000e-11
Integration weight cutoff        WCut        ... 1.0000e-14
Partially contracted basis set               ... off
Rotationally invariant grid construction     ... off
Angular grids for H and He will be reduced by one unit

Total number of grid points                  ...    58974
Total number of batches                      ...      929
Average number of points per batch           ...       63
Average number of grid points per atom       ...     4536

--------------------
COSX GRID GENERATION
--------------------

GRIDX 1
-------
General Integration Accuracy     IntAcc      ... 3.816
Radial Grid Type                 RadialGrid  ... OptM3 with GC (2021)
Angular Grid (max. ang.)         AngularGrid ... 1 (Lebedev-50)
Angular grid pruning method      GridPruning ... 4 (adaptive)
Weight generation scheme         WeightScheme... mBecke (2022)
Basis function cutoff            BFCut       ... 1.0000e-11
Integration weight cutoff        WCut        ... 1.0000e-14
Partially contracted basis set               ... on
Rotationally invariant grid construction     ... off
Angular grids for H and He will be reduced by one unit

Total number of grid points                  ...     7559
Total number of batches                      ...       67
Average number of points per batch           ...      112
Average number of grid points per atom       ...      581
UseSFitting                                  ... on

GRIDX 2
-------
General Integration Accuracy     IntAcc      ... 4.020
Radial Grid Type                 RadialGrid  ... OptM3 with GC (2021)
Angular Grid (max. ang.)         AngularGrid ... 2 (Lebedev-110)
Angular grid pruning method      GridPruning ... 4 (adaptive)
Weight generation scheme         WeightScheme... mBecke (2022)
Basis function cutoff            BFCut       ... 1.0000e-11
Integration weight cutoff        WCut        ... 1.0000e-14
Partially contracted basis set               ... on
Rotationally invariant grid construction     ... off
Angular grids for H and He will be reduced by one unit

Total number of grid points                  ...    16346
Total number of batches                      ...      134
Average number of points per batch           ...      121
Average number of grid points per atom       ...     1257
UseSFitting                                  ... on

GRIDX 3
-------
General Integration Accuracy     IntAcc      ... 4.338
Radial Grid Type                 RadialGrid  ... OptM3 with GC (2021)
Angular Grid (max. ang.)         AngularGrid ... 3 (Lebedev-194)
Angular grid pruning method      GridPruning ... 4 (adaptive)
Weight generation scheme         WeightScheme... mBecke (2022)
Basis function cutoff            BFCut       ... 1.0000e-11
Integration weight cutoff        WCut        ... 1.0000e-14
Partially contracted basis set               ... on
Rotationally invariant grid construction     ... off
Angular grids for H and He will be reduced by one unit

Total number of grid points                  ...    35910
Total number of batches                      ...      287
Average number of points per batch           ...      125
Average number of grid points per atom       ...     2762
UseSFitting                                  ... on
Grids setup in   0.9 sec
Initializing property integral containers    ... done (  0.0 sec)

SHARK setup successfully completed in   1.1 seconds

Maximum memory used throughout the entire STARTUP-calculation: 20.1 MB


           ************************************************************
           *        Program running with 2 parallel MPI-processes     *
           *              working on a common directory               *
           ************************************************************
-------------------------------------------------------------------------------
                                 ORCA GUESS
                   Start orbitals & Density for SCF / CASSCF
-------------------------------------------------------------------------------

------------
SCF SETTINGS
------------
Hamiltonian:
 Density Functional     Method          .... DFT(GTOs)
 Exchange Functional    Exchange        .... B88
   X-Alpha parameter    XAlpha          ....  0.666667
   Becke's b parameter  XBeta           ....  0.004200
 Correlation Functional Correlation     .... LYP
 LDA part of GGA corr.  LDAOpt          .... VWN-5
 Gradients option       PostSCFGGA      .... off
 Hybrid DFT is turned on
   Fraction HF Exchange ScalHFX         ....  0.200000
   Scaling of DF-GGA-X  ScalDFX         ....  0.720000
   Scaling of DF-GGA-C  ScalDFC         ....  0.810000
   Scaling of DF-LDA-C  ScalLDAC        ....  1.000000
   Perturbative correction              ....  0.000000
   NL short-range parameter             ....  4.800000
 RI-approximation to the Coulomb term is turned on
   Number of AuxJ basis functions       .... 371
   RIJ-COSX (HFX calculated with COS-X)).... on


General Settings:
 Integral files         IntName         .... /kaggle/working/Ala/Ala_InterFrag
 Hartree-Fock type      HFTyp           .... RHF
 Total Charge           Charge          ....    0
 Multiplicity           Mult            ....    1
 Number of Electrons    NEL             ....   48
 Basis Dimension        Dim             ....  119
 Nuclear Repulsion      ENuc            ....    244.9936742044 Eh

Convergence Acceleration:
 AO-DIIS                CNVDIIS         .... on
   Start iteration      DIISMaxIt       ....    12
   Startup error        DIISStart       ....  0.200000
   # of expansion vecs  DIISMaxEq       ....     5
   Bias factor          DIISBfac        ....   1.050
   Max. coefficient     DIISMaxC        ....  10.000
 MO-DIIS                CNVKDIIS        .... off
 Trust-Rad. Augm. Hess. CNVTRAH         .... auto
   Auto Start mean grad. ratio tolernc. ....  1.125000
   Auto Start start iteration           ....    50
   Auto Start num. interpolation iter.  ....    10
   Max. Number of Micro iterations      ....    24
   Max. Number of Macro iterations      .... Maxiter - #DIIS iter
   Number of Davidson start vectors     ....     2
   Converg. threshold    (grad. norm)   ....   1.000e-05
   Grad. Scal. Fac. for Micro threshold ....   0.100
   Minimum threshold for Micro iter.    ....   1.000e-02
   NR start threshold (gradient norm)   ....   1.000e-04
   Initial trust radius                 ....   0.400
   Minimum AH scaling param. (alpha)    ....   1.000
   Maximum AH scaling param. (alpha)    .... 1000.000
   Quad. conv. algorithm                .... NR
   White noise on init. David. guess    .... on
   Maximum white noise                  ....   0.010
   Pseudo random numbers                .... off
   Inactive MOs                         .... canonical
   Orbital update algorithm             .... Taylor
   Preconditioner                       .... Diag
   Full preconditioner red. dimension   ....   250
 SOSCF                 CNVSOSCF           .... on
   Start iteration     SOSCFMaxIt         ....   150
   Startup grad/error  SOSCFStart         ....  0.000330
   Hessian update      SOSCFHessUp        .... L-BFGS
   Autom. constraints  SOSCFAutoConstrain .... off
 Level Shifting         CNVShift        .... on
   Level shift para.    LevelShift      ....    0.2500
   Turn off err/grad.   ShiftErr        ....    0.0010
 Zerner damping         CNVZerner       .... off
 Static damping         CNVDamp         .... on
   Fraction old density DampFac         ....    0.7000
   Max. Damping (<1)    DampMax         ....    0.9800
   Min. Damping (>=0)   DampMin         ....    0.0000
   Turn off err/grad.   DampErr         ....    0.1000

SCF Procedure:
 Maximum # iterations   MaxIter         ....   400
 SCF integral mode      SCFMode         .... Direct
   Integral package                     .... SHARK and LIBINT hybrid scheme
 Reset frequency        DirectResetFreq ....    20
 Integral Threshold     Thresh          ....  2.500e-11 Eh
 Primitive CutOff       TCut            ....  2.500e-12 Eh

Convergence Tolerance:
 Convergence Check Mode ConvCheckMode   .... Total+1el-Energy
 Convergence forced     ConvForced      .... 0
 Energy Change          TolE            ....  1.000e-08 Eh
 1-El. energy change                    ....  1.000e-05 Eh
 Orbital Gradient       TolG            ....  1.000e-05
 Orbital Rotation angle TolX            ....  1.000e-05
 DIIS Error             TolErr          ....  5.000e-07

------------------------------
INITIAL GUESS: MODEL POTENTIAL
------------------------------
Loading Hartree-Fock densities                     ... done
Calculating cut-offs                               ... done
Initializing the effective Hamiltonian             ... done
Setting up the integral package (SHARK)            ... done
Starting the Coulomb interaction                   ... done (   0.1 sec)
Making the grid                                    ... done (   0.1 sec)
Mapping shells                                     ... done
Starting the XC term evaluation                    ... done (   0.1 sec)
  promolecular density results
     # of electrons  =     47.997723198
     EX              =    -40.443717641
     EC              =     -1.631000255
     EX+EC           =    -42.074717896
Transforming the Hamiltonian                       ... done (   0.0 sec)
Diagonalizing the Hamiltonian                      ... done (   0.0 sec)
Back transforming the eigenvectors                 ... done (   0.0 sec)
Now organizing SCF variables                       ... done
                      ------------------
                      INITIAL GUESS DONE (   0.2 sec)
                      ------------------
             **** ENERGY FILE WAS UPDATED (/kaggle/working/Ala/Ala_InterFrag.en.tmp) ****
Finished Guess after   0.5 sec
Maximum memory used throughout the entire GUESS-calculation: 8.4 MB


           ************************************************************
           *        Program running with 2 parallel MPI-processes     *
           *              working on a common directory               *
           ************************************************************

-------------------------------------------------------------------------------------------
                                      ORCA LEAN-SCF
                              memory conserving SCF solver
-------------------------------------------------------------------------------------------

--------------------
CPCM SOLVATION MODEL
--------------------
CPCM parameters:
  Epsilon                                         ...      78.3550
  Refrac                                          ...       1.3328
  Rsolv                                           ...       1.3000
  Surface type                                    ... GAUSSIAN VDW
  Discretization scheme                           ... Constant charge density
    Threshold for H atoms                         ...       5.0000 (charges/Ang^2)
    Threshold for non-H atoms                     ...       5.0000 (charges/Ang^2)
  Epsilon function type                           ...         CPCM
Solvent:                                          ... WATER
SMD-CDS solvent descriptors:
  Soln                                            ...       1.3328
  Soln25                                          ...       1.3323
  Sola                                            ...       0.0000
  Solb                                            ...       0.0000
  Solg                                            ...       0.0000
  Solc                                            ...       0.0000
  Solh                                            ...       0.0000
Radii:
  Scheme                                          ... Element-dependent radii
  Radius for C  used is    3.4960 Bohr (=   1.8500 Ang.)
  Radius for N  used is    3.5716 Bohr (=   1.8900 Ang.)
  Radius for O  used is    2.8724 Bohr (=   1.5200 Ang.)
  Radius for H  used is    2.2677 Bohr (=   1.2000 Ang.)
Calculating surface                               ...        done! (  0.0s)
Cavity surface points                             ...          989
Cavity Volume                                     ...     630.0513
Cavity Surface-area                               ...     430.5442
Calculating surface distance matrix               ...        done! (  0.0s)
Performing Cholesky decomposition & store         ...        done! (  0.0s)
Overall time for CPCM initialization              ...                 0.0s

----------------------------------------D-I-I-S--------------------------------------------
Iteration    Energy (Eh)           Delta-E    RMSDP     MaxDP     DIISErr   Damp  Time(sec)
-------------------------------------------------------------------------------------------
               ***  Starting incremental Fock matrix formation  ***
    1    -323.2955398115454955     0.00e+00  6.14e-03  8.79e-02  2.51e-01  0.700   1.6
    2    -323.4273810757711090    -1.32e-01  3.82e-03  5.37e-02  1.13e-01  0.700   0.9
                               ***Turning on AO-DIIS***
    3    -323.4733729604903374    -4.60e-02  1.41e-03  1.63e-02  3.69e-02  0.700   0.9
    4    -323.5020083298496729    -2.86e-02  2.12e-03  2.39e-02  1.54e-02  0.000   0.9
    5    -323.5665330329979952    -6.45e-02  5.21e-04  6.33e-03  8.69e-03  0.000   0.9
    6    -323.5669205027388671    -3.87e-04  1.62e-04  1.87e-03  2.07e-03  0.000   0.8
    7    -323.5669419075024962    -2.14e-05  6.05e-05  7.16e-04  5.25e-04  0.000   0.8
               *** Restarting incremental Fock matrix formation ***
                             ****Resetting DIIS****
                              *** Initializing SOSCF ***
---------------------------------------S-O-S-C-F--------------------------------------
Iteration    Energy (Eh)           Delta-E    RMSDP     MaxDP     MaxGrad    Time(sec)
--------------------------------------------------------------------------------------
    8    -323.5668937101721667     4.82e-05  4.55e-05  7.84e-04  2.25e-04     1.7
               *** Restarting incremental Fock matrix formation ***
    9    -323.5668939068817735    -1.97e-07  2.82e-05  4.96e-04  1.24e-04     1.5
   10    -323.5668934485407817     4.58e-07  1.81e-05  3.48e-04  1.95e-04     1.0
   11    -323.5668941548011617    -7.06e-07  6.15e-06  1.19e-04  2.51e-05     1.0
   12    -323.5668941388508983     1.60e-08  3.70e-06  7.71e-05  4.65e-05     0.9
   13    -323.5668941664068825    -2.76e-08  4.00e-07  5.37e-06  1.62e-06     0.8
                  *** Gradient check signals convergence ***

               *****************************************************
               *                     SUCCESS                       *
               *           SCF CONVERGED AFTER  13 CYCLES          *
               *****************************************************

Recomputing exchange energy using gridx3       ... done (    2.091 sec)
Old exchange energy                            :     -8.227590091 Eh
New exchange energy                            :     -8.227626744 Eh
Exchange energy change after final integration :     -0.000036653 Eh
Total energy after final integration           :   -323.566930816 Eh

SMD CDS free energy correction energy :                 3.11703     Kcal/mol
Total Energy after SMD CDS correction =              -323.561963506 Eh
             **** ENERGY FILE WAS UPDATED (/kaggle/working/Ala/Ala_InterFrag.en.tmp) ****

----------------
TOTAL SCF ENERGY
----------------

Total Energy       :       -323.56196350592683 Eh           -8804.56864 eV

Components:
Nuclear Repulsion  :        244.99367420439282 Eh            6666.61680 eV
Electronic Energy  :       -568.53174557706416 Eh          -15470.53530 eV
One Electron Energy:       -926.56521969839355 Eh          -25213.12144 eV
Two Electron Energy:        358.03347412132939 Eh            9742.58613 eV
CPCM Dielectric    :         -0.02882279065840 Eh              -0.78431 eV
SMD CDS (Gcds)     :          0.00496731024642 Eh               0.13517 eV

Virial components:
Potential Energy   :       -645.00462274337383 Eh          -17551.46808 eV
Kinetic Energy     :        321.44265923744700 Eh            8746.89944 eV
Virial Ratio       :          2.00659310209014

DFT components:
N(Alpha)           :       23.999993510813 electrons
N(Beta)            :       23.999993510813 electrons
N(Total)           :       47.999987021627 electrons
E(X)               :      -32.700514537387 Eh       
E(C)               :       -1.929668721361 Eh       
E(XC)              :      -34.630183258748 Eh       

CPCM Solvation Model Properties:
Surface-charge          :         -0.02699834999396
Corrected charge        :          0.00000000000000
Outlying charge corr.   :          0.00006387525795 Eh               0.00174 eV
Free-energy (cav+disp)  :          0.00496731024642 Eh               0.13517 eV

---------------
SCF CONVERGENCE
---------------

  Last Energy change         ...    2.7556e-08  Tolerance :   1.0000e-08
  Last MAX-Density change    ...    5.3738e-06  Tolerance :   1.0000e-07
  Last RMS-Density change    ...    3.9986e-07  Tolerance :   5.0000e-09
  Last DIIS Error            ...    2.2462e-04  Tolerance :   5.0000e-07
  Last Orbital Gradient      ...    1.6227e-06  Tolerance :   1.0000e-05
  Last Orbital Rotation      ...    1.2494e-06  Tolerance :   1.0000e-05


----------------
ORBITAL ENERGIES
----------------

  NO   OCC          E(Eh)            E(eV) 
   0   2.0000     -19.170411      -521.6534 
   1   2.0000     -19.151659      -521.1431 
   2   2.0000     -14.304103      -389.2344 
   3   2.0000     -10.326025      -280.9854 
   4   2.0000     -10.218197      -278.0513 
   5   2.0000     -10.162677      -276.5405 
   6   2.0000      -1.080697       -29.4073 
   7   2.0000      -1.005967       -27.3738 
   8   2.0000      -0.880694       -23.9649 
   9   2.0000      -0.737617       -20.0716 
  10   2.0000      -0.652353       -17.7514 
  11   2.0000      -0.570494       -15.5239 
  12   2.0000      -0.509227       -13.8568 
  13   2.0000      -0.479997       -13.0614 
  14   2.0000      -0.463186       -12.6039 
  15   2.0000      -0.454726       -12.3737 
  16   2.0000      -0.424111       -11.5406 
  17   2.0000      -0.395080       -10.7507 
  18   2.0000      -0.369164       -10.0455 
  19   2.0000      -0.362481        -9.8636 
  20   2.0000      -0.348883        -9.4936 
  21   2.0000      -0.312402        -8.5009 
  22   2.0000      -0.281628        -7.6635 
  23   2.0000      -0.234145        -6.3714 
  24   0.0000      -0.022279        -0.6063 
  25   0.0000       0.089714         2.4412 
  26   0.0000       0.112652         3.0654 
  27   0.0000       0.153788         4.1848 
  28   0.0000       0.164390         4.4733 
  29   0.0000       0.174982         4.7615 
  30   0.0000       0.194415         5.2903 
  31   0.0000       0.202196         5.5020 
  32   0.0000       0.209846         5.7102 
  33   0.0000       0.232323         6.3218 
  34   0.0000       0.260589         7.0910 
  35   0.0000       0.319565         8.6958 
  36   0.0000       0.338521         9.2116 
  37   0.0000       0.537482        14.6256 
  38   0.0000       0.541984        14.7481 
  39   0.0000       0.549822        14.9614 
  40   0.0000       0.555885        15.1264 
  41   0.0000       0.619571        16.8594 
  42   0.0000       0.639054        17.3895 
  43   0.0000       0.650769        17.7083 
  44   0.0000       0.690367        18.7858 
  45   0.0000       0.722252        19.6535 
  46   0.0000       0.733560        19.9612 
  47   0.0000       0.775776        21.1099 
  48   0.0000       0.800832        21.7918 
  49   0.0000       0.828422        22.5425 
  50   0.0000       0.854662        23.2565 
  51   0.0000       0.870061        23.6756 
  52   0.0000       0.881383        23.9837 
  53   0.0000       0.897956        24.4346 
  54   0.0000       0.915408        24.9095 
  55   0.0000       0.964310        26.2402 
  56   0.0000       0.966432        26.2979 
  57   0.0000       0.979878        26.6638 
  58   0.0000       0.997583        27.1456 
  59   0.0000       1.018008        27.7014 
  60   0.0000       1.044970        28.4351 
  61   0.0000       1.095280        29.8041 
  62   0.0000       1.149691        31.2847 
  63   0.0000       1.228335        33.4247 
  64   0.0000       1.285361        34.9764 
  65   0.0000       1.354380        36.8545 
  66   0.0000       1.389554        37.8117 
  67   0.0000       1.441627        39.2287 
  68   0.0000       1.472001        40.0552 
  69   0.0000       1.528633        41.5962 
  70   0.0000       1.590793        43.2877 
  71   0.0000       1.605460        43.6868 
  72   0.0000       1.686535        45.8929 
  73   0.0000       1.734486        47.1978 
  74   0.0000       1.745888        47.5080 
  75   0.0000       1.751621        47.6640 
  76   0.0000       1.804518        49.1034 
  77   0.0000       1.863699        50.7138 
  78   0.0000       1.892544        51.4987 
  79   0.0000       1.917664        52.1823 
  80   0.0000       1.933832        52.6223 
  81   0.0000       1.940404        52.8011 
  82   0.0000       2.003079        54.5065 
  83   0.0000       2.061161        56.0870 
  84   0.0000       2.095220        57.0138 
  85   0.0000       2.115420        57.5635 
  86   0.0000       2.121920        57.7404 
  87   0.0000       2.142683        58.3054 
  88   0.0000       2.206000        60.0283 
  89   0.0000       2.227453        60.6121 
  90   0.0000       2.260746        61.5180 
  91   0.0000       2.321122        63.1609 
  92   0.0000       2.352132        64.0048 
  93   0.0000       2.375486        64.6403 
  94   0.0000       2.386382        64.9368 
  95   0.0000       2.466648        67.1209 
  96   0.0000       2.476931        67.4007 
  97   0.0000       2.565444        69.8093 
  98   0.0000       2.605624        70.9026 
  99   0.0000       2.663853        72.4871 
 100   0.0000       2.671056        72.6831 
 101   0.0000       2.703972        73.5788 
 102   0.0000       2.739425        74.5435 
 103   0.0000       2.762643        75.1753 
 104   0.0000       2.783332        75.7383 
 105   0.0000       2.851239        77.5861 
 106   0.0000       2.871708        78.1431 
 107   0.0000       2.929152        79.7063 
 108   0.0000       2.934514        79.8522 
 109   0.0000       2.991766        81.4101 
 110   0.0000       3.031301        82.4859 
 111   0.0000       3.060682        83.2854 
 112   0.0000       3.256806        88.6222 
 113   0.0000       3.345944        91.0478 
 114   0.0000       3.413381        92.8828 
 115   0.0000       3.465722        94.3071 
 116   0.0000       3.469418        94.4077 
 117   0.0000       3.507266        95.4376 
 118   0.0000       3.550989        96.6273 

                    ********************************
                    * MULLIKEN POPULATION ANALYSIS *
                    ********************************

-----------------------
MULLIKEN ATOMIC CHARGES
-----------------------
   0 C :   -0.323539
   1 C :    0.019697
   2 C :    0.561762
   3 N :   -0.638699
   4 O :   -0.456563
   5 O :   -0.571309
   6 H :    0.120314
   7 H :    0.125936
   8 H :    0.113099
   9 H :    0.271148
  10 H :    0.277162
  11 H :    0.376318
  12 H :    0.124674
Sum of atomic charges:    0.0000000

--------------------------------
MULLIKEN REDUCED ORBITAL CHARGES
--------------------------------
  0 C s       :     3.241254  s :     3.241254
      pz      :     1.065666  p :     3.051567
      px      :     1.056506
      py      :     0.929396
      dz2     :     0.004930  d :     0.030718
      dxz     :     0.007557
      dyz     :     0.006192
      dx2y2   :     0.007439
      dxy     :     0.004600

  1 C s       :     3.187552  s :     3.187552
      pz      :     0.946865  p :     2.735878
      px      :     0.838174
      py      :     0.950839
      dz2     :     0.010552  d :     0.056874
      dxz     :     0.014636
      dyz     :     0.009387
      dx2y2   :     0.012163
      dxy     :     0.010135

  2 C s       :     3.048801  s :     3.048801
      pz      :     0.802942  p :     2.280087
      px      :     0.762718
      py      :     0.714428
      dz2     :     0.025273  d :     0.109350
      dxz     :     0.031182
      dyz     :     0.021414
      dx2y2   :     0.014924
      dxy     :     0.016557

  3 N s       :     3.602558  s :     3.602558
      pz      :     1.628819  p :     4.008784
      px      :     1.114799
      py      :     1.265165
      dz2     :     0.003741  d :     0.027357
      dxz     :     0.010054
      dyz     :     0.001316
      dx2y2   :     0.009790
      dxy     :     0.002457

  4 O s       :     3.847822  s :     3.847822
      pz      :     1.395244  p :     4.582777
      px      :     1.727434
      py      :     1.460099
      dz2     :     0.009149  d :     0.025965
      dxz     :     0.005776
      dyz     :     0.007700
      dx2y2   :     0.001850
      dxy     :     0.001490

  5 O s       :     3.834072  s :     3.834072
      pz      :     1.679400  p :     4.718539
      px      :     1.571935
      py      :     1.467204
      dz2     :     0.002689  d :     0.018697
      dxz     :     0.004220
      dyz     :     0.005860
      dx2y2   :     0.002987
      dxy     :     0.002941

  6 H s       :     0.867980  s :     0.867980
      pz      :     0.006135  p :     0.011705
      px      :     0.002534
      py      :     0.003036

  7 H s       :     0.862202  s :     0.862202
      pz      :     0.004051  p :     0.011862
      px      :     0.005467
      py      :     0.002344

  8 H s       :     0.875821  s :     0.875821
      pz      :     0.006250  p :     0.011079
      px      :     0.001833
      py      :     0.002997

  9 H s       :     0.705018  s :     0.705018
      pz      :     0.007153  p :     0.023834
      px      :     0.004253
      py      :     0.012428

 10 H s       :     0.698901  s :     0.698901
      pz      :     0.008644  p :     0.023937
      px      :     0.010229
      py      :     0.005064

 11 H s       :     0.583975  s :     0.583975
      pz      :     0.014866  p :     0.039707
      px      :     0.008216
      py      :     0.016625

 12 H s       :     0.863537  s :     0.863537
      pz      :     0.003327  p :     0.011789
      px      :     0.005294
      py      :     0.003169


------------------------
MULLIKEN OVERLAP CHARGES
------------------------
B(  0-C ,  1-C ) :   0.6937 B(  0-C ,  3-N ) :  -0.1080 B(  0-C ,  6-H ) :   0.7466 
B(  0-C ,  7-H ) :   0.7693 B(  0-C ,  8-H ) :  -0.0927 B(  0-C , 12-H ) :   0.7529 
B(  1-C ,  2-C ) :   0.6435 B(  1-C ,  3-N ) :   0.6235 B(  1-C ,  4-O ) :  -0.1642 
B(  1-C ,  5-O ) :  -0.1348 B(  1-C ,  6-H ) :  -0.0653 B(  1-C ,  7-H ) :  -0.0522 
B(  1-C ,  8-H ) :   0.7626 B(  1-C ,  9-H ) :  -0.0709 B(  1-C , 10-H ) :  -0.0588 
B(  1-C , 12-H ) :  -0.0545 B(  2-C ,  3-N ) :  -0.0753 B(  2-C ,  4-O ) :   1.1526 
B(  2-C ,  5-O ) :   0.5605 B(  2-C ,  8-H ) :  -0.0953 B(  3-N ,  8-H ) :  -0.1049 
B(  3-N ,  9-H ) :   0.6895 B(  3-N , 10-H ) :   0.6973 B(  4-O ,  5-O ) :  -0.1551 
B(  5-O , 11-H ) :   0.5911 B(  6-H ,  7-H ) :  -0.0570 B(  6-H , 12-H ) :  -0.0513 
B(  7-H , 12-H ) :  -0.0538 B(  9-H , 10-H ) :  -0.0549 


                     *******************************
                     * LOEWDIN POPULATION ANALYSIS *
                     *******************************

----------------------
LOEWDIN ATOMIC CHARGES
----------------------
   0 C :   -0.189632
   1 C :   -0.027195
   2 C :    0.208405
   3 N :   -0.285579
   4 O :   -0.252332
   5 O :   -0.242899
   6 H :    0.074839
   7 H :    0.080752
   8 H :    0.064956
   9 H :    0.137937
  10 H :    0.142178
  11 H :    0.208411
  12 H :    0.080159

-------------------------------
LOEWDIN REDUCED ORBITAL CHARGES
-------------------------------
  0 C s       :     2.913977  s :     2.913977
      pz      :     1.102893  p :     3.213164
      px      :     1.095353
      py      :     1.014919
      dz2     :     0.009987  d :     0.062490
      dxz     :     0.014082
      dyz     :     0.012055
      dx2y2   :     0.016603
      dxy     :     0.009762

  1 C s       :     2.882181  s :     2.882181
      pz      :     1.032440  p :     3.019636
      px      :     0.952660
      py      :     1.034537
      dz2     :     0.022758  d :     0.125378
      dxz     :     0.034855
      dyz     :     0.018170
      dx2y2   :     0.028612
      dxy     :     0.020983

  2 C s       :     2.892638  s :     2.892638
      pz      :     0.969644  p :     2.645352
      px      :     0.886262
      py      :     0.789445
      dz2     :     0.057429  d :     0.253605
      dxz     :     0.073841
      dyz     :     0.052127
      dx2y2   :     0.031828
      dxy     :     0.038380

  3 N s       :     3.193589  s :     3.193589
      pz      :     1.622529  p :     4.038123
      px      :     1.150277
      py      :     1.265318
      dz2     :     0.005595  d :     0.053866
      dxz     :     0.018257
      dyz     :     0.002398
      dx2y2   :     0.019918
      dxy     :     0.007698

  4 O s       :     3.562875  s :     3.562875
      pz      :     1.473115  p :     4.636875
      px      :     1.699222
      py      :     1.464537
      dz2     :     0.019758  d :     0.052581
      dxz     :     0.010225
      dyz     :     0.016924
      dx2y2   :     0.003026
      dxy     :     0.002648

  5 O s       :     3.497577  s :     3.497577
      pz      :     1.671487  p :     4.708152
      px      :     1.576264
      py      :     1.460400
      dz2     :     0.004522  d :     0.037171
      dxz     :     0.006455
      dyz     :     0.011207
      dx2y2   :     0.006293
      dxy     :     0.008693

  6 H s       :     0.883846  s :     0.883846
      pz      :     0.022931  p :     0.041315
      px      :     0.007752
      py      :     0.010632

  7 H s       :     0.878517  s :     0.878517
      pz      :     0.013686  p :     0.040732
      px      :     0.019691
      py      :     0.007354

  8 H s       :     0.893295  s :     0.893295
      pz      :     0.024138  p :     0.041749
      px      :     0.007004
      py      :     0.010606

  9 H s       :     0.781567  s :     0.781567
      pz      :     0.022922  p :     0.080496
      px      :     0.012120
      py      :     0.045454

 10 H s       :     0.776929  s :     0.776929
      pz      :     0.031046  p :     0.080894
      px      :     0.035505
      py      :     0.014342

 11 H s       :     0.668618  s :     0.668618
      pz      :     0.047413  p :     0.122971
      px      :     0.024944
      py      :     0.050614

 12 H s       :     0.879192  s :     0.879192
      pz      :     0.010937  p :     0.040648
      px      :     0.019063
      py      :     0.010648


---------------------------------
LOEWDIN BOND ORDERS (THRESH 0.050000)
---------------------------------
B(  0-C ,  1-C ) :   1.0409 B(  0-C ,  2-C ) :   0.0533 B(  0-C ,  3-N ) :   0.0513 
B(  0-C ,  6-H ) :   0.9570 B(  0-C ,  7-H ) :   0.9536 B(  0-C , 12-H ) :   0.9563 
B(  1-C ,  2-C ) :   0.9859 B(  1-C ,  3-N ) :   1.1305 B(  1-C ,  4-O ) :   0.0846 
B(  1-C ,  5-O ) :   0.0578 B(  1-C ,  8-H ) :   0.9134 B(  2-C ,  3-N ) :   0.0561 
B(  2-C ,  4-O ) :   2.2484 B(  2-C ,  5-O ) :   1.2617 B(  3-N ,  9-H ) :   0.9890 
B(  3-N , 10-H ) :   0.9836 B(  4-O ,  5-O ) :   0.1672 B(  5-O , 11-H ) :   0.9988 


------------------------------------------
LOEWDIN REDUCED ORBITAL POPULATIONS PER MO
-------------------------------------------
THRESHOLD FOR PRINTING IS 0.1%%
                      0         1         2         3         4         5   
                 -19.17041 -19.15166 -14.30410 -10.32603 -10.21820 -10.16268
                   2.00000   2.00000   2.00000   2.00000   2.00000   2.00000
                  --------  --------  --------  --------  --------  --------
 0 C  s               0.0       0.0       0.0       0.0       0.0      99.5
 0 C  py              0.0       0.0       0.0       0.0       0.1       0.0
 1 C  s               0.0       0.0       0.0       0.0      99.4       0.0
 1 C  py              0.0       0.0       0.0       0.0       0.0       0.1
 2 C  s               0.0       0.0       0.0      99.1       0.0       0.0
 3 N  s               0.0       0.0      99.7       0.0       0.0       0.0
 4 O  s               0.0      99.8       0.0       0.1       0.0       0.0
 4 O  pz              0.0       0.0       0.0       0.3       0.0       0.0
 4 O  dz2             0.0       0.0       0.0       0.1       0.0       0.0
 5 O  s              99.9       0.0       0.0       0.0       0.0       0.0

                      6         7         8         9        10        11   
                  -1.08070  -1.00597  -0.88069  -0.73762  -0.65235  -0.57049
                   2.00000   2.00000   2.00000   2.00000   2.00000   2.00000
                  --------  --------  --------  --------  --------  --------
 0 C  s               0.1       0.0       2.7      23.2      15.6       2.7
 0 C  px              0.0       0.0       0.0       0.3       0.5       0.1
 0 C  py              0.1       0.0       1.8       0.8       1.6       3.7
 1 C  s               1.0       0.1      16.9      11.8       3.9       6.8
 1 C  pz              0.8       0.1       0.9       0.5       0.7       0.1
 1 C  px              0.9       0.0       3.7       3.1       7.4       0.1
 1 C  py              0.0       0.0       0.8       6.4       5.8       0.5
 1 C  dxz             0.0       0.0       0.1       0.1       0.1       0.0
 1 C  dx2y2           0.0       0.0       0.0       0.1       0.2       0.0
 1 C  dxy             0.0       0.0       0.1       0.1       0.0       0.0
 2 C  s              22.0       0.5       0.5       2.3      10.2       2.9
 2 C  pz              4.0      10.1       1.6       3.8       6.5       0.5
 2 C  px              1.7       3.7       2.5       1.9       1.6      10.7
 2 C  py              0.1       7.9       0.0       0.3       0.4       0.8
 2 C  dz2             0.3       0.9       0.0       0.0       0.0       0.0
 2 C  dxz             0.0       0.1       0.0       0.1       0.0       0.2
 2 C  dyz             0.7       0.2       0.0       0.0       0.0       0.0
 2 C  dxy             0.2       0.4       0.0       0.0       0.0       0.0
 3 N  s               0.1       0.0      40.3      10.1       0.8       0.9
 3 N  pz              0.0       0.0       1.4       0.1       0.0       0.2
 3 N  px              0.1       0.0       0.8       1.9       2.6       5.3
 3 N  py              0.0       0.0       0.0       2.1       0.0       1.6
 3 N  dxz             0.0       0.0       0.0       0.0       0.0       0.1
 4 O  s              32.2      23.5       0.8       1.0       2.6       1.1
 4 O  pz              3.4       1.2       0.0       0.4       1.9       1.4
 4 O  px              0.0       0.1       0.0       0.1       0.1       2.0
 4 O  py              0.9       0.2       0.0       0.0       0.3       0.5
 4 O  dz2             0.1       0.1       0.0       0.0       0.0       0.0
 4 O  dxz             0.0       0.0       0.0       0.0       0.0       0.1
 4 O  dyz             0.1       0.0       0.0       0.0       0.0       0.0
 5 O  s              23.0      39.9       0.1       0.2       0.9       0.1
 5 O  pz              0.8       0.5       0.0       0.1       0.7       0.7
 5 O  px              0.8       0.2       0.0       0.4       5.5       9.5
 5 O  py              0.3       0.2       0.0       0.4       5.8      25.0
 5 O  dyz             0.0       0.0       0.0       0.0       0.0       0.3
 5 O  dxy             0.1       0.0       0.0       0.0       0.1       0.1
 6 H  s               0.0       0.0       0.5       5.0       5.2       1.4
 6 H  pz              0.0       0.0       0.0       0.2       0.3       0.1
 7 H  s               0.0       0.0       0.5       4.8       6.0       1.7
 7 H  pz              0.0       0.0       0.0       0.1       0.1       0.0
 7 H  px              0.0       0.0       0.0       0.2       0.2       0.1
 8 H  s               0.2       0.0       2.7       2.7       1.6       2.7
 8 H  pz              0.0       0.0       0.1       0.1       0.1       0.1
 9 H  s               0.0       0.0       8.9       4.0       0.1       1.1
 9 H  py              0.0       0.0       1.0       0.4       0.0       0.1
10 H  s               0.0       0.0       9.0       3.4       1.3       1.9
10 H  pz              0.0       0.0       0.3       0.1       0.0       0.1
10 H  px              0.0       0.0       0.7       0.2       0.1       0.0
11 H  s               4.8       8.4       0.0       0.3       3.3       9.0
11 H  pz              0.3       0.7       0.0       0.0       0.2       0.5
11 H  py              0.5       0.9       0.0       0.0       0.1       0.2
12 H  s               0.0       0.0       0.4       5.6       4.5       1.8
12 H  px              0.0       0.0       0.0       0.2       0.2       0.1

                     12        13        14        15        16        17   
                  -0.50923  -0.48000  -0.46319  -0.45473  -0.42411  -0.39508
                   2.00000   2.00000   2.00000   2.00000   2.00000   2.00000
                  --------  --------  --------  --------  --------  --------
 0 C  s               0.6       0.3       0.3       0.1       0.0       0.0
 0 C  pz              2.3       0.7       7.0       4.2       0.0       8.9
 0 C  px              0.5       2.2       0.8       7.5       0.2      16.3
 0 C  py              4.0       2.5       0.6       0.3       0.6       1.2
 0 C  dxz             0.0       0.0       0.0       0.0       0.0       0.2
 0 C  dx2y2           0.0       0.0       0.0       0.0       0.0       0.2
 1 C  s               2.2       0.1       0.1       0.0       0.3       0.6
 1 C  pz             17.4       0.9       6.0      10.4       0.1       0.1
 1 C  px              2.7       5.3       0.6       7.9       5.1       0.1
 1 C  py              0.1       2.0       4.4       0.7       0.0       3.0
 1 C  dxz             0.1       0.0       0.0       0.2       0.2       0.1
 1 C  dx2y2           0.0       0.1       0.1       0.0       0.1       0.1
 1 C  dxy             0.0       0.0       0.0       0.0       0.1       0.1
 2 C  s               2.2       1.1       0.1       0.3       1.0       0.1
 2 C  pz              0.3       4.1       5.5       1.2       1.5       0.7
 2 C  px              7.7       0.4       0.8       0.2       5.7       4.1
 2 C  py              0.3       0.2       9.0       6.9       8.3       0.6
 2 C  dz2             0.0       0.0       0.1       0.1       0.0       0.3
 2 C  dxz             0.0       0.0       0.1       0.1       0.0       0.4
 2 C  dyz             0.0       0.0       0.1       0.0       0.1       0.2
 3 N  s               0.3       0.0       0.3       0.0       0.0       0.2
 3 N  pz              6.7       3.3       0.0       0.5       0.9       0.3
 3 N  px              1.1       1.8       4.9      15.1      17.2       0.3
 3 N  py              4.4      19.3       4.3       6.1       1.5       0.0
 3 N  dz2             0.1       0.0       0.0       0.0       0.0       0.0
 3 N  dxz             0.0       0.0       0.1       0.2       0.3       0.0
 3 N  dx2y2           0.0       0.1       0.0       0.0       0.1       0.0
 4 O  s               5.2       7.4       0.9       1.8       1.2       0.1
 4 O  pz              9.0      17.6       0.1      12.8      11.0       1.8
 4 O  px              4.4       0.1       1.4       0.1       4.5      10.7
 4 O  py              1.4       6.4      14.7       0.1       0.8       1.3
 4 O  dz2             0.1       0.1       0.0       0.2       0.1       0.0
 4 O  dxz             0.1       0.0       0.0       0.0       0.1       0.1
 4 O  dyz             0.1       0.2       0.2       0.0       0.0       0.0
 5 O  s               0.3       0.6       3.6       0.0       1.7       2.5
 5 O  pz              1.1       5.1      14.3       0.1       1.8      24.0
 5 O  px              0.2       0.0       3.6       3.7      15.3       0.7
 5 O  py              4.6       0.0       1.0       1.5       6.9       0.4
 6 H  s               2.5       0.1       0.9       3.1       0.1       1.1
 6 H  px              0.0       0.0       0.0       0.0       0.0       0.1
 7 H  s               0.1       0.0       2.8       0.6       0.0      15.1
 7 H  px              0.0       0.0       0.1       0.0       0.0       0.2
 8 H  s               9.0       1.2       3.9       4.0       0.0       0.3
 8 H  pz              0.2       0.0       0.1       0.1       0.0       0.0
 8 H  py              0.1       0.0       0.0       0.1       0.0       0.0
 9 H  s               3.8       9.7       1.8       1.0       2.0       0.1
 9 H  px              0.0       0.0       0.0       0.2       0.1       0.0
 9 H  py              0.2       0.4       0.1       0.0       0.1       0.0
10 H  s               1.5       3.1       2.9       4.3       9.0       0.3
10 H  pz              0.0       0.0       0.1       0.1       0.2       0.0
10 H  px              0.1       0.1       0.1       0.0       0.1       0.0
10 H  py              0.0       0.1       0.0       0.1       0.0       0.0
11 H  s               1.5       0.3       0.9       0.8       0.7       1.1
11 H  pz              0.0       0.0       0.0       0.0       0.0       0.1
11 H  px              0.0       0.0       0.1       0.0       0.3       0.0
11 H  py              0.0       0.0       0.0       0.0       0.0       0.1
12 H  s               0.7       2.6       0.5       2.7       0.2       1.1
12 H  pz              0.0       0.0       0.0       0.0       0.0       0.1

                     18        19        20        21        22        23   
                  -0.36916  -0.36248  -0.34888  -0.31240  -0.28163  -0.23415
                   2.00000   2.00000   2.00000   2.00000   2.00000   2.00000
                  --------  --------  --------  --------  --------  --------
 0 C  s               0.0       0.1       0.2       0.1       0.0       0.3
 0 C  pz             11.9      11.4       8.4       0.1       0.0       0.0
 0 C  px             22.3       2.2       0.4       0.9       0.4       0.1
 0 C  py              0.2      20.7       9.3       1.8       0.2       1.1
 0 C  dz2             0.1       0.2       0.0       0.0       0.0       0.0
 0 C  dxz             0.2       0.2       0.0       0.0       0.0       0.0
 0 C  dyz             0.2       0.2       0.1       0.0       0.0       0.0
 0 C  dx2y2           0.0       0.0       0.3       0.0       0.0       0.0
 0 C  dxy             0.3       0.1       0.1       0.0       0.0       0.0
 1 C  s               0.0       0.1       0.2       0.2       0.3       0.2
 1 C  pz              2.1       2.0       3.3       0.5       2.6       3.2
 1 C  px              2.1       0.2       0.0       3.9       4.0       0.4
 1 C  py              0.1      16.6       8.9       1.4       0.1       0.6
 1 C  dz2             0.0       0.1       0.0       0.0       0.0       0.7
 1 C  dxz             0.1       0.1       0.0       0.1       0.0       0.5
 1 C  dyz             0.2       0.3       0.0       0.0       0.0       0.1
 1 C  dx2y2           0.0       0.0       0.5       0.1       0.0       0.0
 1 C  dxy             0.2       0.1       0.1       0.0       0.0       0.1
 2 C  s               0.2       0.2       0.7       0.5       0.5       0.3
 2 C  pz              1.1       1.2       4.1       1.0       0.7       0.2
 2 C  px              0.2       0.0       0.1       1.5       0.8       0.5
 2 C  py              1.0       0.2       3.0       0.1       0.2       0.0
 2 C  dz2             0.0       0.1       0.6       0.0       0.4       0.0
 2 C  dxz             0.2       0.0       0.2       0.1       2.2       0.0
 2 C  dyz             0.0       0.1       0.1       0.7       0.3       0.1
 2 C  dx2y2           0.1       0.0       0.0       1.0       0.1       0.0
 2 C  dxy             0.0       0.1       0.1       0.0       0.9       0.0
 3 N  s               0.6       0.2       0.1       0.0       0.2       5.6
 3 N  pz              0.1       7.3       1.6       0.0       1.3      57.4
 3 N  px              1.8       0.2       1.4       1.0       0.5       1.7
 3 N  py              5.5       0.6       3.2       0.0       0.6      13.8
 3 N  dx2y2           0.1       0.2       0.2       0.1       0.0       0.0
 4 O  s               0.0       0.2       0.1       0.1       0.0       0.0
 4 O  pz              0.9       1.4       1.8       6.3       1.7       0.5
 4 O  px              1.5       0.0       4.1       1.6      53.7       0.4
 4 O  py              5.4       1.0      25.1       3.2      11.3       0.4
 5 O  s               0.8       0.2       1.0       0.0       0.2       0.0
 5 O  pz              3.2       2.7       5.8      14.6       7.9       0.1
 5 O  px              0.6       0.4       0.6      34.7       2.2       0.1
 5 O  py              0.8       0.1       0.8      20.8       4.5       0.0
 6 H  s               8.5      13.8       1.4       0.1       0.1       0.4
 6 H  pz              0.1       0.2       0.0       0.0       0.0       0.0
 6 H  py              0.1       0.0       0.2       0.0       0.0       0.0
 7 H  s               2.2       4.6       4.4       0.9       0.3       0.0
 7 H  pz              0.2       0.0       0.0       0.0       0.0       0.0
 7 H  py              0.0       0.2       0.1       0.0       0.0       0.0
 8 H  s               2.1       5.9       0.7       0.1       0.5       7.2
 8 H  pz              0.0       0.1       0.0       0.0       0.0       0.0
 8 H  py              0.0       0.0       0.1       0.0       0.0       0.0
 9 H  s               1.7       1.6       2.0       0.2       0.1       0.9
 9 H  pz              0.0       0.1       0.0       0.0       0.0       0.9
10 H  s               0.1       0.4       0.1       0.7       0.2       0.8
10 H  pz              0.0       0.0       0.0       0.0       0.0       0.5
10 H  px              0.0       0.1       0.0       0.0       0.0       0.2
10 H  py              0.1       0.0       0.0       0.0       0.0       0.3
11 H  s               0.7       0.1       1.1       0.1       0.3       0.0
11 H  pz              0.0       0.0       0.0       0.3       0.1       0.0
11 H  px              0.0       0.0       0.0       0.6       0.1       0.0
11 H  py              0.0       0.0       0.0       0.4       0.1       0.0
12 H  s              19.3       1.7       2.5       0.0       0.0       0.1
12 H  pz              0.0       0.2       0.0       0.0       0.0       0.0
12 H  px              0.2       0.0       0.1       0.0       0.0       0.0
12 H  py              0.1       0.1       0.0       0.0       0.0       0.0

                     24        25        26        27        28        29   
                  -0.02228   0.08971   0.11265   0.15379   0.16439   0.17498
                   0.00000   0.00000   0.00000   0.00000   0.00000   0.00000
                  --------  --------  --------  --------  --------  --------
[...]
 1 C  pz              1.9       0.4       0.1       0.9       0.9
 1 C  px              0.1       0.1       0.0       0.1       0.0
 1 C  py              1.7       0.1       0.1       0.1       0.3
 1 C  dz2             1.9       0.3       0.1       0.8       4.2
 1 C  dxz             0.9       0.0       0.3       1.6       0.0
 1 C  dyz             9.1       0.7       0.5       1.4       0.7
 1 C  dx2y2           0.0       0.2       0.2       1.7       0.2
 1 C  dxy             0.0       0.0       0.2       0.2       0.0
 2 C  s               0.2       0.1       0.3       0.1       0.0
 2 C  px              0.0       0.1       0.2       0.3       0.1
 2 C  dz2             0.2       0.1       0.8       0.0       0.6
 2 C  dxz             0.3       0.0       0.0       1.8       0.1
 2 C  dyz             0.0       0.0       0.1       0.6       0.2
 2 C  dx2y2           0.2       0.1       0.1       0.0       0.2
 2 C  dxy             0.0       0.0       0.0       0.5       0.0
 3 N  s               2.5       0.2       0.0       0.0       0.1
 3 N  pz              0.1       1.1       0.0       1.3       1.2
 3 N  px              0.3       0.6       0.0       0.6       1.5
 3 N  py              1.2       1.4       0.0       1.9       1.9
 3 N  dz2             0.2       0.6       0.0       2.3       0.8
 3 N  dxz             1.1       1.7       0.0       1.2       4.0
 3 N  dyz             1.2       0.0       0.0       0.0       0.6
 3 N  dx2y2           0.9       3.2       0.0       4.0       6.4
 3 N  dxy             1.2       0.0       0.2       0.3       0.0
 4 O  s               0.0       0.0       0.2       0.1       0.1
 4 O  dxz             0.0       0.0       0.0       0.4       0.0
 4 O  dxy             0.0       0.0       0.0       0.1       0.0
 5 O  s               0.1       0.4       2.8       1.3       0.2
 5 O  pz              0.0       0.2       1.4       0.8       0.1
 5 O  px              0.0       1.0       3.3       2.1       0.4
 5 O  py              0.0       0.1       0.3       0.2       0.0
 5 O  dz2             0.1       0.0       0.0       0.4       0.0
 5 O  dxz             0.2       2.0       8.1       3.7       1.3
 5 O  dyz             0.0       0.1       0.7       0.6       0.0
 5 O  dx2y2           0.0       0.0       0.9       0.1       0.2
 5 O  dxy             0.0       0.4       1.8       0.9       0.3
 6 H  s               0.9       1.4       0.8       0.5       3.1
 6 H  pz              3.7       4.0       2.4       0.8       7.6
 6 H  py              0.3       2.4       1.3       1.0       4.6
 7 H  s               1.3       1.0       3.0       2.2       0.3
 7 H  pz              1.5       1.7       4.7       3.2       0.4
 7 H  px              5.5       2.4       7.4       5.3       0.7
 7 H  py              0.2       0.1       0.7       0.7       0.1
 8 H  s               4.1       0.6       0.3       1.3       1.4
 8 H  pz             17.7       1.5       0.7       4.5       2.9
 8 H  px              0.5       0.1       0.0       0.0       0.2
 8 H  py              4.1       0.9       0.5       1.5       3.5
 9 H  s               2.0       1.6       0.0       2.9       3.4
 9 H  pz              0.2       0.3       0.0       0.6       0.2
 9 H  px              0.5       0.0       0.1       0.0       0.1
 9 H  py              9.5       3.9       0.0       6.5       8.3
10 H  s               0.7       2.5       0.0       2.5       3.7
10 H  pz              1.8       3.1       0.0       1.6       4.8
10 H  px              2.9       4.2       0.0       5.2       4.3
10 H  py              0.1       0.0       0.0       0.0       0.3
11 H  s               0.1       1.9       9.0       4.6       1.0
11 H  pz              0.3       2.2       9.8       3.4       1.1
11 H  px              0.0       2.1      11.0       6.1       0.9
11 H  py              0.0       0.5       2.2       0.7       0.3
12 H  s               0.6       4.7       1.3       0.5       1.1
12 H  pz              0.3       5.8       1.6       0.3       1.1
12 H  px              3.4      13.7       3.8       1.4       3.0
12 H  py              0.2       1.0       0.4       0.0       0.2


                      *****************************
                      * MAYER POPULATION ANALYSIS *
                      *****************************

  NA   - Mulliken gross atomic population
  ZA   - Total nuclear charge
  QA   - Mulliken gross atomic charge
  VA   - Mayer's total valence
  BVA  - Mayer's bonded valence
  FA   - Mayer's free valence

  ATOM       NA         ZA         QA         VA         BVA        FA
  0 C      6.3212     6.0000    -0.3212     3.8719     3.8719     0.0000
  1 C      6.0153     6.0000    -0.0153     3.8604     3.8604    -0.0000
  2 C      5.4332     6.0000     0.5668     3.9459     3.9459     0.0000
  3 N      7.6291     7.0000    -0.6291     2.8124     2.8124     0.0000
  4 O      8.5100     8.0000    -0.5100     2.0310     2.0310     0.0000
  5 O      8.4961     8.0000    -0.4961     2.0201     2.0201    -0.0000
  6 H      0.8798     1.0000     0.1202     0.9563     0.9563    -0.0000
  7 H      0.8751     1.0000     0.1249     0.9536     0.9536    -0.0000
  8 H      0.8643     1.0000     0.1357     0.9399     0.9399    -0.0000
  9 H      0.7369     1.0000     0.2631     0.9164     0.9164     0.0000
 10 H      0.7317     1.0000     0.2683     0.9089     0.9089    -0.0000
 11 H      0.6308     1.0000     0.3692     0.8778     0.8778    -0.0000
 12 H      0.8764     1.0000     0.1236     0.9597     0.9597    -0.0000

  Mayer bond orders larger than 0.100000
B(  0-C ,  1-C ) :   0.9865 B(  0-C ,  6-H ) :   0.9601 B(  0-C ,  7-H ) :   0.9583 
B(  0-C , 12-H ) :   0.9545 B(  1-C ,  2-C ) :   0.9433 B(  1-C ,  3-N ) :   1.0021 
B(  1-C ,  8-H ) :   0.9221 B(  2-C ,  4-O ) :   1.8721 B(  2-C ,  5-O ) :   1.1071 
B(  3-N ,  9-H ) :   0.8963 B(  3-N , 10-H ) :   0.8972 B(  5-O , 11-H ) :   0.8259 


-------
TIMINGS
-------

Total SCF time: 0 days 0 hours 0 min 12 sec 

Total time                  ....      12.303 sec
Sum of individual times     ....      11.435 sec  ( 92.9%)

SCF preparation             ....       0.387 sec  (  3.1%)
Fock matrix formation       ....      10.816 sec  ( 87.9%)
  Startup                   ....       0.003 sec  (  0.0% of F)
  Split-RI-J                ....       0.639 sec  (  5.9% of F)
  Chain of spheres X        ....       8.366 sec  ( 77.3% of F)
  XC integration            ....       1.798 sec  ( 16.6% of F)
    XC Preparation          ....       0.000 sec  (  0.0% of XC)
    Basis function eval.    ....       0.728 sec  ( 40.5% of XC)
    Density eval.           ....       0.336 sec  ( 18.7% of XC)
    XC-Functional eval.     ....       0.149 sec  (  8.3% of XC)
    XC-Potential eval.      ....       0.448 sec  ( 24.9% of XC)
  CPCM terms                ....       0.803 sec  (  7.4% of F)
Diagonalization             ....       0.000 sec  (  0.0%)
Density matrix formation    ....       0.011 sec  (  0.1%)
Total Energy calculation    ....       0.006 sec  (  0.1%)
Population analysis         ....       0.135 sec  (  1.1%)
Orbital Transformation      ....       0.012 sec  (  0.1%)
Orbital Orthonormalization  ....       0.000 sec  (  0.0%)
DIIS solution               ....       0.050 sec  (  0.4%)
  MO trafo                  ....       0.005 sec  ( 11.0 % of DIIS)
  Orb grad                  ....       0.000 sec  (  0.0 % of DIIS)
  Energy W gradient         ....       0.000 sec  (  0.0 % of DIIS)
  DIIS error                ....       0.009 sec  ( 18.5 % of DIIS)
  DIIS work                 ....       0.027 sec  ( 54.0 % of DIIS)
  Form Q                    ....       0.000 sec  (  0.0 % of DIIS)
  Form QpQm                 ....       0.000 sec  (  0.0 % of DIIS)
  Exp/Cayley                ....       0.000 sec  (  0.0 % of DIIS)
  Orb update                ....       0.000 sec  (  0.0 % of DIIS)
  Wake-sleep                ....       0.002 sec  (  4.7 % of DIIS)
SOSCF solution              ....       0.017 sec  (  0.1%)
  MO trafo                  ....       0.009 sec  ( 50.0 % of SOSCF)
  Orb grad                  ....       0.001 sec  (  3.6 % of SOSCF)
  Rot update                ....       0.001 sec  (  6.4 % of SOSCF)
  Step                      ....       0.005 sec  ( 30.7 % of SOSCF)
Finished LeanSCF after  12.4 sec

Maximum memory used throughout the entire LEANSCF-calculation: 13.3 MB


-------------------------------------------------------------------------------
                          DFT DISPERSION CORRECTION                            
                                                                               
                              DFTD3 V3.1  Rev 1                                
                          USING Becke-Johnson damping                          
-------------------------------------------------------------------------------
The B3LYP functional is recognized
Active option DFTDOPT                   ...         4   

molecular C6(AA) [au] = 1330.180950 


            DFT-D V3
 parameters
 s6 scaling factor         :     1.0000 
 a1 scaling factor         :     0.3981 
 s8 scaling factor         :     1.9889 
 a2 scaling factor         :     4.4211 
 ad hoc parameters k1-k3   :    16.0000     1.3333    -4.0000 

 Edisp/kcal,au: -10.024307369098  -0.015974748931 
 E6   /kcal   :  -4.911650505 
 E8   /kcal   :  -5.112656864 
 % E8         :  51.002594751 

-------------------------   ----------------
Dispersion correction           -0.015974749
-------------------------   ----------------


-------------------------   --------------------
FINAL SINGLE POINT ENERGY      -323.601685998395
-------------------------   --------------------

                                *** OPTIMIZATION RUN DONE ***



           ************************************************************
           *        Program running with 2 parallel MPI-processes     *
           *              working on a common directory               *
           ************************************************************

------------------------------------------------------------------------------
                              ORCA PROPERTY CALCULATIONS
------------------------------------------------------------------------------

GBWName                                 ... /kaggle/working/Ala/Ala_InterFrag.gbw
Number of atoms                         ...     13
Number of basis functions               ...    119
Max core memory                         ...   3000 MB

Electric properties:
Dipole moment                           ... YES
Quadrupole moment                       ...  NO
Static polarizability (Dipole/Dipole)   ...  NO
Static polarizability (Dipole/Quad.)    ...  NO
Static polarizability (Quad./Quad.)     ...  NO
Static polarizability (Velocity)        ...  NO
Static hyperpolarizability              ...  NO

Atomic electric properties:
Dipole moment                           ...  NO
Quadrupole moment                       ...  NO
Static polarizability                   ...  NO

Choice of electric origin               ... Center of mass
Position of electric origin             ...    -1.297219   -12.151017     4.372539

General magnetic properties:
Magnetizability                         ...  NO

EPR properties:
g-Tensor (aka g-matrix)                 ...  NO
Zero-Field splitting spin-orbit         ...  NO
Zero-field splitting spin-spin          ...  NO
Hyperfine couplings                     ...  NO (   0 nuclei)
Quadrupole couplings                    ...  NO (   0 nuclei)
Contact density                         ...  NO (   0 nuclei)

NMR properties:
Chemical shifts                         ...  NO (   0 nuclei)
Spin-rotation constants                 ...  NO (   0 nuclei)
Spin-spin couplings                     ...  NO (   0 nuclei,    0 pairs)

Choice of magnetic origin               ... GIAO
Position of magnetic origin             ...     0.000000     0.000000     0.000000

Properties with geometric perturbations:
SCF Hessian                             ...  NO
IR spectrum                             ...  NO
VCD spectrum                            ...  NO
X-ray spectroscopy properties:
SCF XES/XAS/RIXS spectra                ...  NO

SCF SOC stabilization energy            ...  NO
Diagonal Born-Oppenheimer correction    ...  NO

-------------
DIPOLE MOMENT
-------------

Method             : SCF
Type of density    : Electron Density
Multiplicity       :   1
Irrep              :   0
Energy             :  -323.5857112494639978 Eh
Basis              : AO
                                X                 Y                 Z
Electronic contribution:      3.953263685      -3.271452576       2.888706107
Nuclear contribution   :     -3.739102485       3.235617744      -4.223696723
                        -----------------------------------------
Total Dipole Moment    :      0.214161200      -0.035834832      -1.334990617
                        -----------------------------------------
Magnitude (a.u.)       :      1.352534326
Magnitude (Debye)      :      3.437869044



--------------------
Rotational spectrum 
--------------------
 
Rotational constants in cm-1:             0.168217             0.108056             0.072685 
Rotational constants in MHz :          5043.028281          3239.430501          2179.045812 

Dipole components along the rotational axes: 
x,y,z [a.u.] :    -0.239735     0.906365    -0.974874 
x,y,z [Debye]:    -0.609358     2.303797    -2.477932 

 

Dipole moment calculation done in   0.0 sec 

Maximum memory used throughout the entire PROP-calculation: 7.3 MB

--------------------------------
SUGGESTED CITATIONS FOR THIS RUN
--------------------------------

Below you find a list of papers that are relevant to this ORCA run
We neither can nor want to force you to cite these papers, but we appreciate if you do
You receive ORCA, which is the product of decades of hard work by many enthusiastic individuals, for free
The only thing we kindly ask in return is that you cite our papers,
We deeply appreciate it, if you show your appreciation for ORCA by not just citing the generic ORCA reference.

Please note that relegating all ORCA citations to the supporting information does *not* help us.
SI sections are not indexed - citations you put there will not count into any citation statistics
But we need these citations in order to attract the funding resources that allow us to do what we are doing

Therefore, if you are a happy ORCA user, please consider citing a few of the papers listed below in the main body of your paper

In addition to the list printed below, the program has created the file /kaggle/working/Ala/Ala_InterFrag.bibtex that contains the list in bibtex format
You can import this file easily into all common literature databanks and citation aid programs

It goes without saying that in many instances, there are alternative algorithms to achieve similar
results as the ones you have gotten from ORCA. It is, of course, also the case that in some instances
ORCA just re-implements algorithms worked out by others. We are fully aware of that and we are also
fully appreciative of our colleagues work. Hence this citation list should not be read as indicating
that the listed papers, which are focused on our own work, are the only ones worth citing. It simply
meant to make it easier for users to cite ORCA specific papers. It is not a substitute for doing your
own literature research and citing the relevant literature in a scientifically appropriate manner.

List of essential papers. We consider these as the minimum necessary citations

  1. Neese, F.
     Software update: the ORCA program system, version 6.0
     WIRES Comput. Molec. Sci. 2025 15(1), e70019
     doi.org/10.1002/wcms.70019

List of papers to cite with high priority. The work reported in these papers was absolutely
necessary for this run to complete.
Our perspective: the developers of density functionals and basis sets usually get cited in chemistry papers
Good! But without the algorithms to do something with them, the functionals or basis sets would not do anything.
Hence, in our opinion, the algorithm design and method developments papers are equally worthy of getting cited

  1. Neese, F.
     An improvement of the resolution of the identity approximation for the formation of the Coulomb matrix
     J. Comp. Chem. 2003 24(14), 1740-1747
     doi.org/10.1002/jcc.10318
  2. Neese, F.; Wennmohs, F.; Hansen, A.; Becker, U.
     Efficient, approximate and parallel Hartree-Fock and hybrid DFT calculations. A 'chain-of-spheres' algorithm for the Hartree-Fock exchange
     Chem. Phys. 2009 356(1-3), 98-109
     doi.org/10.1016/j.chemphys.2008.10.036
  3. Grimme, S.; Antony, J.; Ehrlich, S.; Krieg, H.
     A consistent and accurate ab initio parametrization of density functional dispersion correction (DFT-D) for the 94 elements H-Pu
     J. Chem. Phys. 2010 132 , 154104
     doi.org/10.1063/1.3382344
  4. Grimme, S.; Ehrlich, S.; Goerigk, L.
     Effect of the damping function in dispersion corrected density functional theory
     J. Comput. Chem. 2011 32(7), 1456-1465
     doi.org/10.1002/jcc.21759
  5. Garcia-Rates, M.; Neese, F.
     Effect of the Solute Cavity on the Solvation Energy and its Derivatives within the Framework of the Gaussian Charge Scheme
     J. Comput. Chem. 2020 41 , 922-939
     doi.org/10.1002/jcc.26139
  6. Helmich-Paris, B.; de Souza, B.; Neese, F.; Izsák, R.
     An improved chain of spheres for exchange algorithm
     J. Chem. Phys. 2021 155(10), 104109
     doi.org/10.1063/5.0058766
  7. Neese, F.
     The SHARK Integral Generation and Digestion System
     J. Comp. Chem. 2022 44(3), 381
     doi.org/10.1002/jcc.26942

List of suggested additional citations. These are papers that are important in the 'surrounding' of 
of this run, or papers that preceded the highly important papers. If you like your results we are grateful for a citation.

  1. Izsak, R.; Neese, F.
     An overlap fitted chain of spheres exchange method
     J. Chem. Phys. 2011 135 , 144105
     doi.org/10.1063/1.3646921
  2. Izsak, R.; Hansen, A.; Neese, F.
     The resolution of identity and chain of spheres approximations for the LPNO-CCSD singles Fock term
     Molec. Phys. 2012 110 , 2413-2417
     doi.org/10.1080/00268976.2012.687466
  3. Neese, F.
     The ORCA program system
     WIRES Comput. Molec. Sci. 2012 2(1), 73-78
     doi.org/10.1002/wcms.81
  4. Izsak, R.; Neese, F.; Klopper, W.
     Robust fitting techniques in the chain of spheres approximation to the Fock exchange: The role of the complementary space
     J. Chem. Phys. 2013 139 , 
     doi.org/10.1063/1.4819264
  5. Neese, F.
     Software update: the ORCA program system, version 4.0
     WIRES Comput. Molec. Sci. 2018 8(1), 1-6
     doi.org/10.1002/wcms.1327
  6. Neese, F.; Wennmohs, F.; Becker, U.; Riplinger, C.
     The ORCA quantum chemistry program package
     J. Chem. Phys. 2020 152(22), 224108
     doi.org/10.1063/5.0004608
  7. Neese, F.
     Software update: The ORCA program system—Version 5.0
     WIRES Comput. Molec. Sci. 2022 12(1), e1606
     doi.org/10.1002/wcms.1606

List of optional additional citations

  1. Neese, F.
     Approximate second-order SCF convergence for spin unrestricted wavefunctions
     Chem. Phys. Lett. 2000 325(1-3), 93-98
     doi.org/10.1016/s0009-2614(00)00662-x

Timings for individual modules:

Sum of individual times          ...      546.067 sec (=   9.101 min)
Startup calculation              ...       26.746 sec (=   0.446 min)   4.9 %
SCF iterations                   ...      316.438 sec (=   5.274 min)  57.9 %
Property calculations            ...        0.417 sec (=   0.007 min)   0.1 %
SCF Gradient evaluation          ...      202.386 sec (=   3.373 min)  37.1 %
Geometry relaxation              ...        0.080 sec (=   0.001 min)   0.0 %
                             ****ORCA TERMINATED NORMALLY****
TOTAL RUN TIME: 0 days 0 hours 9 minutes 15 seconds 221 msec
