
                                 *****************
                                 * O   R   C   A *
                                 *****************

                                            #,                                       
                                            ###                                      
                                            ####                                     
                                            #####                                    
                                            ######                                   
                                           ########,                                 
                                     ,,################,,,,,                         
                               ,,#################################,,                 
                          ,,##########################################,,             
                       ,#########################################, ''#####,          
                    ,#############################################,,   '####,        
                  ,##################################################,,,,####,       
                ,###########''''           ''''###############################       
              ,#####''   ,,,,##########,,,,          '''####'''          '####       
            ,##' ,,,,###########################,,,                        '##       
           ' ,,###''''                  '''############,,,                           
         ,,##''                                '''############,,,,        ,,,,,,###''
      ,#''                                            '''#######################'''  
     '                                                          ''''####''''         
             ,#######,   #######,   ,#######,      ##                                
            ,#'     '#,  ##    ##  ,#'     '#,    #''#        ,####,    ,#,          
            ##       ##  ##   ,#'  ##            #'  '#       #'       ,# #          
            ##       ##  #######   ##           ,######,      #####,      #          
            '#,     ,#'  ##    ##  '#,     ,#' ,#      #,     #,   #      #          
             '#######'   ##     ##  '#######'  #'      '#     '####' #    #          



                #########################################################
                #                        -***-                          #
                #          Department of theory and spectroscopy        #
                #                                                       #
                #                      Frank Neese                      #
                #                                                       #
                #     Directorship, Architecture, Infrastructure        #
                #                    SHARK, DRIVERS                     #
                #        Core code/Algorithms in most modules           #
                #                                                       #
                #        Max Planck Institute fuer Kohlenforschung      #
                #                Kaiser Wilhelm Platz 1                 #
                #                 D-45470 Muelheim/Ruhr                 #
                #                      Germany                          #
                #                                                       #
                #                  All rights reserved                  #
                #                        -***-                          #
                #########################################################


                         Program Version 6.1.1  -  RELEASE   -
                                (GIT: $487d211c$)
                          ($2025-11-21 10:33:24 +0100$)
                                                                         
                                  - NO-DMRG VERSION -                    
                                                                         


 With contributions from (in alphabetic order):
[Max-Planck-Institut fuer Kohlenforschung]                               
  Daniel Aravena         : Magnetic Suceptibility                        
  Michael Atanasov       : Ab Initio Ligand Field Theory (pilot matlab implementation)
  Alexander A. Auer      : GIAO ZORA, VPT2 properties, NMR spectrum      
  Ute Becker             : All parallelization in ORCA, NUMFREQ, NUMCALC 
  Giovanni Bistoni       : ED, misc. LED, open-shell LED, HFLD           
  Dmytro Bykov           : pre 5.0 version of the SCF Hessian            
  Marcos Casanova-Páez   : Triplet and SCS-CIS(D). UHF-(DLPNO)-IP/EA/STEOM-CCSD. UHF-CVS-IP/STEOM-CCSD   
  Vijay G. Chilkuri      : MRCI spin determinant printing, contributions to CSF-ICE 
  Pauline Colinet        : FMM embedding                                 
  Dipayan Datta          : RHF DLPNO-CCSD density                        
  Achintya Kumar Dutta   : EOM-CC, STEOM-CC                              
  Nicolas Foglia         : Exact transition moments, OPA infrastructure, MCD improvements    
  Dmitry Ganyushin       : Spin-Orbit,Spin-Spin,Magnetic field MRCI      
  Miquel Garcia-Rates    : C-PCM and meta-GGA Hessian, CCSD/C-PCM, Gaussian charge scheme 
  Tiago L. C. Gouveia    : GS-ROHF, GS-ROCIS                             
  Yang Guo               : DLPNO-NEVPT2, F12-NEVPT2, CIM, IAO-localization        
  Andreas Hansen         : Spin unrestricted coupled pair/coupled cluster methods 
  Ingolf Harden          : AUTO-CI MPn and infrastructure                
  Benjamin Helmich-Paris : MC-RPA, TRAH-(SCF,CASSCF), AVAS, COSX integrals, SCF dyn. polar., MC-PDFT, srDFT 
  Lee Huntington         : MR-EOM, pCC                                   
  Robert Izsak           : Overlap fitted RIJCOSX, COSX-SCS-MP3, EOM     
  Riya Kayal             : Wick's Theorem for AUTO-CI, AUTO-CI UHF-CCSDT 
  Emily Kempfer          : AUTO-CI RHF CISDT and CCSDT, approximate NEVPT4
  Christian Kollmar      : KDIIS, OOCD, Brueckner-CCSD(T), CCSD density, CASPT2, CASPT2-K, improved NEVPT2 
  Axel Koslowski         : Symmetry handling                             
  Simone Kossmann        : meta-GGA functionals, TD-DFT gradient, OOMP2, (MP2 Hessian; deprecated post 5.0) 
  Lucas Lang             : DCDCAS, Hyperfine gauge corrections, ICE-SOC+SSC
  Marvin Lechner         : AUTO-CI (C++ implementation), FIC-MRCC        
  Spencer Leger          : CASSCF response                               
  Dagmar Lenk            : GEPOL surface, SMD, ORCA-2-JSON               
  Dimitrios Liakos       : Extrapolation schemes; Compound Job, Property file
  Dimitrios Manganas     : Further ROCIS development; embedding schemes. LFT, Crystal Embedding 
  Dimitrios Pantazis     : SARC Basis sets                               
  Anastasios Papadopoulos: AUTO-CI, single reference methods and gradients 
  Taras Petrenko         : pre 6.0 DFT Hessian and TD-DFT gradient,  ECA, NRVS 
  Petra Pikulova         : Analytic Raman intensities                    
  Peter Pinski           : DLPNO-MP2, DLPNO-MP2 Gradient                 
  Shashank Vittal Rao    : ES-AILFT, MagRelax                            
  Christoph Reimann      : Effective Core Potentials                     
  Marius Retegan         : Local ZFS, SOC                                
  Christoph Riplinger    : Optimizer, TS searches, QM/MM, DLPNO-CCSD(T), (RO)-DLPNO pert. Triples 
  Michael Roemelt        : Original ROCIS implementation, recursive CI coupling coefficients
  Masaaki Saitow         : Open-shell DLPNO-CCSD energy and density      
  Barbara Sandhoefer     : DKH picture change effects                    
  Yorick L. A. Schmerwitz: GMF and freeze-and-release deltaSCF, NEB S-IDPP initial path                    
  Kantharuban Sivalingam : CASSCF convergence/infrastructure, NEVPT2, NEVPT3, NEVPT4(SD), FIC-MRCI and CEPA variants
  Bernardo de Souza      : ESD, SOC TD-DFT                               
  Georgi L. Stoychev     : AutoAux, RI-MP2 NMR, DLPNO-MP2 response, X2C  
  Van Anh Tran           : RI-MP2 g-tensors                              
  Willem Van den Heuvel  : Paramagnetic NMR                              
  Zikuan Wang            : NOTCH, Electric field optimization            
  Frank Wennmohs         : Technical directorship and infrastructure     
  Hang Xu                : AUTO-CI-Response properties                   
                                                                         
[FACCTs GmbH]                                                            
  Markus Bursch, Nicolas Foglia, Miquel Garcia-Rates, Ingolf Harden, Hagen Neugebauer, Anastasios Papadopoulos, 
  Christoph Riplinger, Bernardo de Souza, Georgi L. Stoychev                                                    
                                                                 
  APM, various basis sets, CI-OPT, improved COSX, DLPNO-Multilevel,           
  DOCKER, DRACO, updates on ESD, Fragmentator, GOAT, IRC, LR-CPCM, L-BFGS, MBIS, meta-GGA TD-DFT gradient, ML-optimized integration grids, 
  MM, NACMEs, nearIR, NEB, NEB-TS, NL-DFT gradient (VV10), 2- and 3-layer-ONIOM, interface openCOSMO-RS, QMMM,   
  Crystal-QMMM, RESP, rigid body optimization, SF, symmetry and pop. for TD-DFT, various functionals, SOLVATOR                                   
                                                                         
[Other institutions]                                                     
  V. Asgeirsson          : NEB                                           
  Christoph Bannwarth    : sTDA-DFT, sTD-DFT, PBEh-3c, B97-3c, D3        
  Giovanni Bistoni       : ETS/NOCV, ADLD/ADEX, COVALED                  
  Martin Brehm           : Molecular dynamics                            
  Ronald Cardenas        : ETS/NOCV                                      
  Martina Colucci        : COVALED                                       
  Sebastian Ehlert       : rSCAN, r2SCAN, r2SCAN-3c, D4, dhf basis sets  
  Marvin Friede          : D4 for Fr, Ra, Ac-Lr                          
  Lars Goerigk           : TD-DFT with DH, B97 family of functionals     
  Stefan Grimme          : VdW corrections, initial TS optimization, DFT functionals, gCP, sTDA/sTD-DF 
  Waldemar Hujo          : DFT-NL                                        
  H. Jonsson             : NEB                                           
  Holger Kruse           : gCP                                           
  Marcel Mueller         : wB97X-3c, vDZP basis set                      
  Hagen Neugebauer       : wr2SCAN, Native XTB                           
  Gianluca Regni         : ADLD/ADEX                                     
  Tobias Risthaus        : pre 6.0 range-separated hybrid DFT and stability analysis
  Lukas Wittmann         : regularized MP2, r2SCAN double-hybrids, wr2SCAN        
                                                                         
We gratefully acknowledge several colleagues who have allowed us to      
interface, adapt or use parts of their codes:                            
  Ed Valeev, F. Pavosevic, A. Kumar             : LibInt (2-el integral package), F12 methods 
  Garnet Chan, S. Sharma, J. Yang, R. Olivares  : DMRG                   
  Ulf Ekstrom                                   : XCFun DFT Library      
  Mihaly Kallay                                 : mrcc  (arbitrary order and MRCC methods)
  Frank Weinhold                                : gennbo (NPA and NBO analysis)           
  Simon Mueller                                 : openCOSMO-RS                            
  Christopher J. Cramer and Donald G. Truhlar   : smd solvation model                     
  S Lehtola, MJT Oliveira, MAL Marques          : LibXC Library                           
  Liviu Ungur et al                             : ANISO software                          


 Your calculation uses the libint2 library for the computation of 2-el integrals
 For citations please refer to: http://libint.valeyev.net

 Your ORCA version has been built with support for libXC version: 7.0.0
 For citations please refer to: https://libxc.gitlab.io

 This ORCA versions uses:
   CBLAS   interface :  Fast vector & matrix operations
   LAPACKE interface :  Fast linear algebra routines
   SCALAPACK package :  Parallel linear algebra routines
   Shared memory     :  Shared parallel matrices
   BLAS/LAPACK       :  OpenBLAS 0.3.29  USE64BITINT DYNAMIC_ARCH NO_AFFINITY SkylakeX SINGLE_THREADED
        Core in use  :  SkylakeX
   Copyright (c) 2011-2014, The OpenBLAS Project


  ***********************************
  * Starting time: Sat Mar 14 00:18:54 2026
  * Host name:     gaurav-kushwaha
  * Process ID:    9699
  * Working dir.:  /home/friday_code/Desktop/DP-Regenrate-Results/orca_6_1_1_linux_x86-64_shared_openmpi418_nodmrg
  ***********************************

NOTE: MaxCore=3000 MB was set to SCF,MP2,MDCI,CIPSI,MRCI,RASCI and CIS
      => If you want to overwrite this, your respective input block should be placed after the MaxCore statement
Your calculation utilizes the atom-pairwise dispersion correction
with the Becke-Johnson damping scheme (D3BJ)


Warning: RI is on but no J-basis has been assigned. Assigning Def2/J (nothing to worry about!)
================================================================================

----- Orbital basis set information -----
Your calculation utilizes the basis: 6-31G(d,p)
   H-He, Li-Ne : W. J. Hehre, R. Ditchfield and J.A. Pople, J. Chem. Phys. 56, 2257 (1972).
                 Note: He and Ne are unpublished basis sets taken from the Gaussian program.
                 Note: Li and B from J. D. Dill and J. A. Pople, J. Chem. Phys. 62, 2921 (1975).
   Na - Ar     : M. M. Francl, W. J. Pietro, W. J. Hehre, J. S. Binkley, M. S. Gordon, 
                 D. J. DeFrees and J. A. Pople, J. Chem. Phys. 77, 3654 (1982).
   K - Zn      : V. A. Rassolov, J. A. Pople, M. A. Ratner, and T. L. Windus, J. Chem. Phys. 109, 1223 (1998).

----- AuxJ basis set information -----
Your calculation utilizes the auxiliary basis: def2/J
   H-Rn: F. Weigend, Phys. Chem. Chem. Phys. 8, 1057 (2006).
   Fr-Lr: K. Eichkorn, F. Weigend, O. Treutler, R. Ahlrichs; Theor. Chem. Acc. 97, 119 (1997).

================================================================================
                                        WARNINGS
                       Please study these warnings very carefully!
================================================================================

WARNING: Old DensityContainer found on disk!
         Will remove this file - 
         If you want to keep old densities, please start your calculation with a different basename. 


================================================================================
                                       INPUT FILE
================================================================================
NAME = /home/friday_code/Desktop/DP-Regenrate-Results/calculations/Ala/Ala-2/Ala_InterFrag.inp
|  1> !RKS B3LYP 6-31G(d,p) TightSCF D3BJ
|  2> 
|  3> %pal nprocs 2 end
|  4> %maxcore 3000
|  5> 
|  6> %elprop
|  7>   Polar 1      # polarizability via CP-SCF :contentReference[oaicite:14]{index=14}
|  8> end
|  9> 
| 10> %output
| 11>   PrintLevel Normal
| 12>   Print[ P_OrbEn ] 2
| 13> end
| 14> 
| 15> *xyz 0 1
| 16> C     -1.224470   -4.892622    1.369882
| 17> C     -1.272054   -6.382146    1.728052
| 18> C     -0.102932   -6.768536    2.613335
| 19> N     -2.524279   -6.695171    2.417597
| 20> O     -0.188960   -7.301732    3.707111
| 21> O      1.083170   -6.480565    2.038156
| 22> H     -1.273022   -4.277967    2.273992
| 23> H     -2.082749   -4.644650    0.737755
| 24> H     -1.127549   -6.958061    0.798750
| 25> H     -2.527210   -7.686624    2.649937
| 26> H     -3.279573   -6.562282    1.747970
| 27> H      1.787187   -6.768620    2.647161
| 28> H     -0.312746   -4.647154    0.821115
| 29> *
| 30> 
| 31>                          ****END OF INPUT****
================================================================================

                       ****************************
                       * Single Point Calculation *
                       ****************************

---------------------------------
CARTESIAN COORDINATES (ANGSTROEM)
---------------------------------
  C     -1.224470   -4.892622    1.369882
  C     -1.272054   -6.382146    1.728052
  C     -0.102932   -6.768536    2.613335
  N     -2.524279   -6.695171    2.417597
  O     -0.188960   -7.301732    3.707111
  O      1.083170   -6.480565    2.038156
  H     -1.273022   -4.277967    2.273992
  H     -2.082749   -4.644650    0.737755
  H     -1.127549   -6.958061    0.798750
  H     -2.527210   -7.686624    2.649937
  H     -3.279573   -6.562282    1.747970
  H      1.787187   -6.768620    2.647161
  H     -0.312746   -4.647154    0.821115

----------------------------
CARTESIAN COORDINATES (A.U.)
----------------------------
  NO LB      ZA    FRAG     MASS         X           Y           Z
   0 C     6.0000    0    12.011   -2.313913   -9.245716    2.588702
   1 C     6.0000    0    12.011   -2.403834  -12.060508    3.265545
   2 C     6.0000    0    12.011   -0.194513  -12.790679    4.938487
   3 N     7.0000    0    14.007   -4.770196  -12.652040    4.568596
   4 O     8.0000    0    15.999   -0.357083  -13.798274    7.005425
   5 O     8.0000    0    15.999    2.046895  -12.246493    3.851557
   6 H     1.0000    0     1.008   -2.405663   -8.084186    4.297222
   7 H     1.0000    0     1.008   -3.935825   -8.777116    1.394155
   8 H     1.0000    0     1.008   -2.130759  -13.148830    1.509419
   9 H     1.0000    0     1.008   -4.775735  -14.525614    5.007655
  10 H     1.0000    0     1.008   -6.197495  -12.400916    3.303185
  11 H     1.0000    0     1.008    3.377294  -12.790838    5.002409
  12 H     1.0000    0     1.008   -0.591004   -8.781848    1.551682

--------------------------------
INTERNAL COORDINATES (ANGSTROEM)
--------------------------------
 C      0   0   0     0.000000000000     0.00000000     0.00000000
 C      1   0   0     1.532720369974     0.00000000     0.00000000
 C      2   1   0     1.516532054746   111.10538634     0.00000000
 N      2   1   3     1.463394823100   110.15436667   121.23774843
 O      3   2   1     1.219854388596   125.48003886   124.24453050
 O      3   2   1     1.349294679929   111.99077158   302.84320814
 H      1   2   3     1.094336766187   110.57298650   299.60659022
 H      1   2   3     1.094402804617   109.31880346   180.37971048
 H      2   1   3     1.102797347410   107.85000373   245.50241069
 H      4   2   1     1.018317002495   108.55601548   180.42498404
 H      4   2   1     1.018100600081   107.27618419    66.33305172
 H      6   3   2     0.974424296361   107.79422579   181.14073819
 H      1   2   3     1.092080771504   111.20950698    60.87813444

---------------------------
INTERNAL COORDINATES (A.U.)
---------------------------
 C      0   0   0     0.000000000000     0.00000000     0.00000000
 C      1   0   0     2.896421739133     0.00000000     0.00000000
 C      2   1   0     2.865830256783   111.10538634     0.00000000
 N      2   1   3     2.765415441457   110.15436667   121.23774843
 O      3   2   1     2.305190717708   125.48003886   124.24453050
 O      3   2   1     2.549797419024   111.99077158   302.84320814
 H      1   2   3     2.067996786375   110.57298650   299.60659022
 H      1   2   3     2.068121580922   109.31880346   180.37971048
 H      2   1   3     2.083984967819   107.85000373   245.50241069
 H      4   2   1     1.924340252231   108.55601548   180.42498404
 H      4   2   1     1.923931310935   107.27618419    66.33305172
 H      6   3   2     1.841395058362   107.79422579   181.14073819
 H      1   2   3     2.063733574264   111.20950698    60.87813444

---------------------
BASIS SET INFORMATION
---------------------
There are 4 groups of distinct atoms

 Group   1 Type C   : 10s4p1d contracted to 3s2p1d pattern {631/31/1}
 Group   2 Type N   : 10s4p1d contracted to 3s2p1d pattern {631/31/1}
 Group   3 Type O   : 10s4p1d contracted to 3s2p1d pattern {631/31/1}
 Group   4 Type H   : 4s1p contracted to 2s1p pattern {31/1}

Atom   0C    basis set group =>   1
Atom   1C    basis set group =>   1
Atom   2C    basis set group =>   1
Atom   3N    basis set group =>   2
Atom   4O    basis set group =>   3
Atom   5O    basis set group =>   3
Atom   6H    basis set group =>   4
Atom   7H    basis set group =>   4
Atom   8H    basis set group =>   4
Atom   9H    basis set group =>   4
Atom  10H    basis set group =>   4
Atom  11H    basis set group =>   4
Atom  12H    basis set group =>   4
---------------------------------
AUXILIARY/J BASIS SET INFORMATION
---------------------------------
There are 4 groups of distinct atoms

 Group   1 Type C   : 12s5p4d2f1g contracted to 6s4p3d1f1g pattern {711111/2111/211/2/1}
 Group   2 Type N   : 12s5p4d2f1g contracted to 6s4p3d1f1g pattern {711111/2111/211/2/1}
 Group   3 Type O   : 12s5p4d2f1g contracted to 6s4p3d1f1g pattern {711111/2111/211/2/1}
 Group   4 Type H   : 5s2p1d contracted to 3s1p1d pattern {311/2/1}

Atom   0C    basis set group =>   1
Atom   1C    basis set group =>   1
Atom   2C    basis set group =>   1
Atom   3N    basis set group =>   2
Atom   4O    basis set group =>   3
Atom   5O    basis set group =>   3
Atom   6H    basis set group =>   4
Atom   7H    basis set group =>   4
Atom   8H    basis set group =>   4
Atom   9H    basis set group =>   4
Atom  10H    basis set group =>   4
Atom  11H    basis set group =>   4
Atom  12H    basis set group =>   4

Checking for AutoStart:
The File: /home/friday_code/Desktop/DP-Regenrate-Results/calculations/Ala/Ala-2/Ala_InterFrag.gbw exists
Trying to determine its content:
     ... Fine, the file contains calculation information
     ... Fine, the calculation information was read
     ... Fine, the file contains a basis set
     ... Fine, the basis set was read
     ... Fine, the file contains a geometry
     ... Fine, the geometry was read
     ... Fine, the file contains a set of orbitals
     ... Fine, the orbitals can be read
     => possible old guess file was deleted
     => GBW file was renamed to GES file
     => GES file is set as startup file
     => Guess is set to MORead
     ... now leaving AutoStart



           ************************************************************
           *        Program running with 2 parallel MPI-processes     *
           *              working on a common directory               *
           ************************************************************
------------------------------------------------------------------------------
                             ORCA STARTUP CALCULATIONS
                           -- RI-GTO INTEGRALS CHOSEN --
------------------------------------------------------------------------------
------------------------------------------------------------------------------
                   ___                                                        
                  /   \      - P O W E R E D   B Y -                         
                 /     \                                                     
                 |  |  |   _    _      __       _____    __    __             
                 |  |  |  | |  | |    /  \     |  _  \  |  |  /  |          
                  \  \/   | |  | |   /    \    | | | |  |  | /  /          
                 / \  \   | |__| |  /  /\  \   | |_| |  |  |/  /          
                |  |  |   |  __  | /  /__\  \  |    /   |      \           
                |  |  |   | |  | | |   __   |  |    \   |  |\   \          
                \     /   | |  | | |  |  |  |  | |\  \  |  | \   \       
                 \___/    |_|  |_| |__|  |__|  |_| \__\ |__|  \__/        
                                                                              
                      - O R C A' S   B I G   F R I E N D -                    
                                      &                                       
                       - I N T E G R A L  F E E D E R -                       
                                                                              
 v1 FN, 2020, v2 2021, v3 2022-2024                                           
------------------------------------------------------------------------------


----------------------
SHARK INTEGRAL PACKAGE
----------------------

Number of atoms                             ...     13
Number of basis functions                   ...    119
Number of shells                            ...     57
Maximum angular momentum                    ...      2
Integral batch strategy                     ... SHARK/LIBINT Hybrid
RI-J (if used) integral strategy            ... SPLIT-RIJ (Revised 2003 algorithm where possible)
Printlevel                                  ...      1
Contraction scheme used                     ... SEGMENTED contraction
Prescreening option                         ... SCHWARTZ
   Thresh                                   ... 2.500e-11
   Tcut                                     ... 2.500e-12
   Tpresel                                  ... 2.500e-12 
Coulomb Range Separation                    ... NOT USED
Exchange Range Separation                   ... NOT USED
Multipole approximations                    ... NOT USED
Finite Nucleus Model                        ... NOT USED
CABS basis                                  ... NOT available
Auxiliary Coulomb fitting basis             ... AVAILABLE
   # of basis functions in Aux-J            ...    371
   # of shells in Aux-J                     ...    125
   Maximum angular momentum in Aux-J        ...      4
Auxiliary J/K fitting basis                 ... NOT available
Auxiliary Correlation fitting basis         ... NOT available
Auxiliary 'external' fitting basis          ... NOT available

Checking pre-screening integrals            ... done (  0.0 sec) Dimension = 57
   => SHARK Basis and OBASIS are compatible. Storing Pre-screening
Shell pair information
Shell pair cut-off parameter TPreSel        ...   2.5e-12
Total number of shell pairs                 ...      1653
Shell pairs after pre-screening             ...      1589
Total number of primitive shell pairs       ...      8022
Primitive shell pairs kept                  ...      5535
          la=0 lb=0:    502 shell pairs
          la=1 lb=0:    581 shell pairs
          la=1 lb=1:    183 shell pairs
          la=2 lb=0:    189 shell pairs
          la=2 lb=1:    113 shell pairs
          la=2 lb=2:     21 shell pairs

Checking whether 4 symmetric matrices of dimension 119 fit in memory
:Max Core in MB      =   3000.00
 MB in use           =      5.52
 MB left             =   2994.48
 MB needed           =      0.22
 Data fit in memory  = YES
Calculating RI/J V-Matrix + Cholesky decomp.... done (  0.0 sec)
Calculating Nuclear repulsion               ... done (  0.0 sec) ENN=    248.871257898822 Eh

Diagonalization of the overlap matrix:
Smallest eigenvalue                        ... 3.454e-03
Time for diagonalization                   ...    0.001 sec
Threshold for overlap eigenvalues          ... 1.000e-07
Number of eigenvalues below threshold      ... 0
Time for construction of square roots      ...    0.000 sec
Total time needed                          ...    0.001 sec

-------------------
DFT GRID GENERATION
-------------------

General Integration Accuracy     IntAcc      ... 4.388
Radial Grid Type                 RadialGrid  ... OptM3 with GC (2021)
Angular Grid (max. ang.)         AngularGrid ... 4 (Lebedev-302)
Angular grid pruning method      GridPruning ... 4 (adaptive)
Weight generation scheme         WeightScheme... mBecke (2022)
Basis function cutoff            BFCut       ... 1.0000e-11
Integration weight cutoff        WCut        ... 1.0000e-14
Partially contracted basis set               ... off
Rotationally invariant grid construction     ... off
Angular grids for H and He will be reduced by one unit

Total number of grid points                  ...    58936
Total number of batches                      ...      927
Average number of points per batch           ...       63
Average number of grid points per atom       ...     4534

--------------------
COSX GRID GENERATION
--------------------

GRIDX 1
-------
General Integration Accuracy     IntAcc      ... 3.816
Radial Grid Type                 RadialGrid  ... OptM3 with GC (2021)
Angular Grid (max. ang.)         AngularGrid ... 1 (Lebedev-50)
Angular grid pruning method      GridPruning ... 4 (adaptive)
Weight generation scheme         WeightScheme... mBecke (2022)
Basis function cutoff            BFCut       ... 1.0000e-11
Integration weight cutoff        WCut        ... 1.0000e-14
Partially contracted basis set               ... on
Rotationally invariant grid construction     ... off
Angular grids for H and He will be reduced by one unit

Total number of grid points                  ...     7555
Total number of batches                      ...       66
Average number of points per batch           ...      114
Average number of grid points per atom       ...      581
UseSFitting                                  ... on

GRIDX 2
-------
General Integration Accuracy     IntAcc      ... 4.020
Radial Grid Type                 RadialGrid  ... OptM3 with GC (2021)
Angular Grid (max. ang.)         AngularGrid ... 2 (Lebedev-110)
Angular grid pruning method      GridPruning ... 4 (adaptive)
Weight generation scheme         WeightScheme... mBecke (2022)
Basis function cutoff            BFCut       ... 1.0000e-11
Integration weight cutoff        WCut        ... 1.0000e-14
Partially contracted basis set               ... on
Rotationally invariant grid construction     ... off
Angular grids for H and He will be reduced by one unit

Total number of grid points                  ...    16354
Total number of batches                      ...      134
Average number of points per batch           ...      122
Average number of grid points per atom       ...     1258
UseSFitting                                  ... on

GRIDX 3
-------
General Integration Accuracy     IntAcc      ... 4.338
Radial Grid Type                 RadialGrid  ... OptM3 with GC (2021)
Angular Grid (max. ang.)         AngularGrid ... 3 (Lebedev-194)
Angular grid pruning method      GridPruning ... 4 (adaptive)
Weight generation scheme         WeightScheme... mBecke (2022)
Basis function cutoff            BFCut       ... 1.0000e-11
Integration weight cutoff        WCut        ... 1.0000e-14
Partially contracted basis set               ... on
Rotationally invariant grid construction     ... off
Angular grids for H and He will be reduced by one unit

Total number of grid points                  ...    35874
Total number of batches                      ...      287
Average number of points per batch           ...      124
Average number of grid points per atom       ...     2760
UseSFitting                                  ... on
Grids setup in   0.4 sec
Initializing property integral containers    ... done (  0.0 sec)

SHARK setup successfully completed in   0.5 seconds

Maximum memory used throughout the entire STARTUP-calculation: 20.1 MB


           ************************************************************
           *        Program running with 2 parallel MPI-processes     *
           *              working on a common directory               *
           ************************************************************
-------------------------------------------------------------------------------
                                 ORCA GUESS
                   Start orbitals & Density for SCF / CASSCF
-------------------------------------------------------------------------------

------------
SCF SETTINGS
------------
Hamiltonian:
 Density Functional     Method          .... DFT(GTOs)
 Exchange Functional    Exchange        .... B88
   X-Alpha parameter    XAlpha          ....  0.666667
   Becke's b parameter  XBeta           ....  0.004200
 Correlation Functional Correlation     .... LYP
 LDA part of GGA corr.  LDAOpt          .... VWN-5
 Gradients option       PostSCFGGA      .... off
 Hybrid DFT is turned on
   Fraction HF Exchange ScalHFX         ....  0.200000
   Scaling of DF-GGA-X  ScalDFX         ....  0.720000
   Scaling of DF-GGA-C  ScalDFC         ....  0.810000
   Scaling of DF-LDA-C  ScalLDAC        ....  1.000000
   Perturbative correction              ....  0.000000
   NL short-range parameter             ....  4.800000
 RI-approximation to the Coulomb term is turned on
   Number of AuxJ basis functions       .... 371
   RIJ-COSX (HFX calculated with COS-X)).... on


General Settings:
 Integral files         IntName         .... /home/friday_code/Desktop/DP-Regenrate-Results/calculations/Ala/Ala-2/Ala_InterFrag
 Hartree-Fock type      HFTyp           .... RHF
 Total Charge           Charge          ....    0
 Multiplicity           Mult            ....    1
 Number of Electrons    NEL             ....   48
 Basis Dimension        Dim             ....  119
 Nuclear Repulsion      ENuc            ....    248.8712578988 Eh

Convergence Acceleration:
 AO-DIIS                CNVDIIS         .... on
   Start iteration      DIISMaxIt       ....    12
   Startup error        DIISStart       ....  0.200000
   # of expansion vecs  DIISMaxEq       ....     5
   Bias factor          DIISBfac        ....   1.050
   Max. coefficient     DIISMaxC        ....  10.000
 MO-DIIS                CNVKDIIS        .... off
 Trust-Rad. Augm. Hess. CNVTRAH         .... auto
   Auto Start mean grad. ratio tolernc. ....  1.125000
   Auto Start start iteration           ....     1
   Auto Start num. interpolation iter.  ....    10
   Max. Number of Micro iterations      ....    24
   Max. Number of Macro iterations      .... Maxiter - #DIIS iter
   Number of Davidson start vectors     ....     2
   Converg. threshold    (grad. norm)   ....   1.000e-05
   Grad. Scal. Fac. for Micro threshold ....   0.100
   Minimum threshold for Micro iter.    ....   1.000e-02
   NR start threshold (gradient norm)   ....   1.000e-04
   Initial trust radius                 ....   0.400
   Minimum AH scaling param. (alpha)    ....   1.000
   Maximum AH scaling param. (alpha)    .... 1000.000
   Quad. conv. algorithm                .... NR
   White noise on init. David. guess    .... on
   Maximum white noise                  ....   0.010
   Pseudo random numbers                .... off
   Inactive MOs                         .... canonical
   Orbital update algorithm             .... Taylor
   Preconditioner                       .... Diag
   Full preconditioner red. dimension   ....   250
 SOSCF                 CNVSOSCF           .... on
   Start iteration     SOSCFMaxIt         ....   150
   Startup grad/error  SOSCFStart         ....  0.003300
   Hessian update      SOSCFHessUp        .... L-BFGS
   Autom. constraints  SOSCFAutoConstrain .... off
 Level Shifting         CNVShift        .... on
   Level shift para.    LevelShift      ....    0.2500
   Turn off err/grad.   ShiftErr        ....    0.0010
 Zerner damping         CNVZerner       .... off
 Static damping         CNVDamp         .... on
   Fraction old density DampFac         ....    0.7000
   Max. Damping (<1)    DampMax         ....    0.9800
   Min. Damping (>=0)   DampMin         ....    0.0000
   Turn off err/grad.   DampErr         ....    0.1000

SCF Procedure:
 Maximum # iterations   MaxIter         ....   125
 SCF integral mode      SCFMode         .... Direct
   Integral package                     .... SHARK and LIBINT hybrid scheme
 Reset frequency        DirectResetFreq ....    20
 Integral Threshold     Thresh          ....  2.500e-11 Eh
 Primitive CutOff       TCut            ....  2.500e-12 Eh

Convergence Tolerance:
 Convergence Check Mode ConvCheckMode   .... Total+1el-Energy
 Convergence forced     ConvForced      .... 0
 Energy Change          TolE            ....  1.000e-08 Eh
 1-El. energy change                    ....  1.000e-05 Eh
 Orbital Gradient       TolG            ....  1.000e-05
 Orbital Rotation angle TolX            ....  1.000e-05
 DIIS Error             TolErr          ....  5.000e-07

---------------------
INITIAL GUESS: MOREAD
---------------------
Guess MOs are being read from file: /home/friday_code/Desktop/DP-Regenrate-Results/calculations/Ala/Ala-2/Ala_InterFrag.ges
Input Geometry matches current geometry (good)
Input basis set matches current basis set (good)
Occupation numbers will be reassigned to an Aufbau configuration
MOs were renormalized
MOs were reorthogonalized (Cholesky)
                      ------------------
                      INITIAL GUESS DONE (   0.0 sec)
                      ------------------
             **** ENERGY FILE WAS UPDATED (/home/friday_code/Desktop/DP-Regenrate-Results/calculations/Ala/Ala-2/Ala_InterFrag.en.tmp) ****
Finished Guess after   0.3 sec
Maximum memory used throughout the entire GUESS-calculation: 8.4 MB


           ************************************************************
           *        Program running with 2 parallel MPI-processes     *
           *              working on a common directory               *
           ************************************************************

-------------------------------------------------------------------------------------------
                                      ORCA LEAN-SCF
                              memory conserving SCF solver
-------------------------------------------------------------------------------------------

----------------------------------------D-I-I-S--------------------------------------------
Iteration    Energy (Eh)           Delta-E    RMSDP     MaxDP     DIISErr   Damp  Time(sec)
-------------------------------------------------------------------------------------------
               ***  Starting incremental Fock matrix formation  ***
    1    -323.5653863830838191     0.00e+00  8.64e-04  1.06e-02  1.82e-02  0.700   0.7
    2    -323.5667415368710635    -1.36e-03  7.68e-04  8.67e-03  1.18e-02  0.700   0.4
                               ***Turning on AO-DIIS***
    3    -323.5675383026301688    -7.97e-04  4.89e-04  5.19e-03  8.41e-03  0.700   0.4
    4    -323.5680476073481486    -5.09e-04  1.09e-03  1.15e-02  5.18e-03  0.000   0.4
                              *** Initializing SOSCF ***
---------------------------------------S-O-S-C-F--------------------------------------
Iteration    Energy (Eh)           Delta-E    RMSDP     MaxDP     MaxGrad    Time(sec)
--------------------------------------------------------------------------------------
    5    -323.5691843621044654    -1.14e-03  6.74e-05  1.29e-03  9.90e-04     0.4
               *** Restarting incremental Fock matrix formation ***
    6    -323.5691920237286467    -7.66e-06  4.02e-05  5.75e-04  1.03e-04     0.7
    7    -323.5691918621897685     1.62e-07  1.96e-05  3.55e-04  2.44e-04     0.5
    8    -323.5691923679883075    -5.06e-07  9.14e-06  1.59e-04  5.23e-05     0.5
    9    -323.5691923325813377     3.54e-08  5.57e-06  1.07e-04  5.63e-05     0.5
   10    -323.5691923939635899    -6.14e-08  7.53e-07  7.23e-06  2.45e-06     0.5
                  *** Gradient check signals convergence ***

               *****************************************************
               *                     SUCCESS                       *
               *           SCF CONVERGED AFTER  10 CYCLES          *
               *****************************************************

Recomputing exchange energy using gridx3       ... done (    1.123 sec)
Old exchange energy                            :     -8.228783600 Eh
New exchange energy                            :     -8.228769642 Eh
Exchange energy change after final integration :      0.000013959 Eh
Total energy after final integration           :   -323.569178435 Eh
             **** ENERGY FILE WAS UPDATED (/home/friday_code/Desktop/DP-Regenrate-Results/calculations/Ala/Ala-2/Ala_InterFrag.en.tmp) ****

----------------
TOTAL SCF ENERGY
----------------

Total Energy       :       -323.56917843538042 Eh           -8804.76497 eV

Components:
Nuclear Repulsion  :        248.87125789882248 Eh            6772.13122 eV
Electronic Energy  :       -572.44045029271251 Eh          -15576.89657 eV
One Electron Energy:       -934.04651231467335 Eh          -25416.69776 eV
Two Electron Energy:        361.60606202196084 Eh            9839.80119 eV

Virial components:
Potential Energy   :       -645.11774990411618 Eh          -17554.54643 eV
Kinetic Energy     :        321.54857146873576 Eh            8749.78146 eV
Virial Ratio       :          2.00628398676261

DFT components:
N(Alpha)           :       23.999988083591 electrons
N(Beta)            :       23.999988083591 electrons
N(Total)           :       47.999976167183 electrons
E(X)               :      -32.707198351053 Eh       
E(C)               :       -1.932029930849 Eh       
E(XC)              :      -34.639228281902 Eh       

---------------
SCF CONVERGENCE
---------------

  Last Energy change         ...    6.1382e-08  Tolerance :   1.0000e-08
  Last MAX-Density change    ...    7.2323e-06  Tolerance :   1.0000e-07
  Last RMS-Density change    ...    7.5349e-07  Tolerance :   5.0000e-09
  Last DIIS Error            ...    9.9029e-04  Tolerance :   5.0000e-07
  Last Orbital Gradient      ...    2.4475e-06  Tolerance :   1.0000e-05
  Last Orbital Rotation      ...    2.9436e-06  Tolerance :   1.0000e-05


----------------
ORBITAL ENERGIES
----------------

  NO   OCC          E(Eh)            E(eV) 
   0   2.0000     -19.190747      -522.2068 
   1   2.0000     -19.130092      -520.5563 
   2   2.0000     -14.309832      -389.3903 
   3   2.0000     -10.310212      -280.5551 
   4   2.0000     -10.224072      -278.2112 
   5   2.0000     -10.176671      -276.9213 
   6   2.0000      -1.101099       -29.9624 
   7   2.0000      -1.006284       -27.3824 
   8   2.0000      -0.888840       -24.1866 
   9   2.0000      -0.750483       -20.4217 
  10   2.0000      -0.665379       -18.1059 
  11   2.0000      -0.581766       -15.8306 
  12   2.0000      -0.506260       -13.7760 
  13   2.0000      -0.488008       -13.2794 
  14   2.0000      -0.470397       -12.8002 
  15   2.0000      -0.437297       -11.8995 
  16   2.0000      -0.429925       -11.6989 
  17   2.0000      -0.402950       -10.9648 
  18   2.0000      -0.376465       -10.2441 
  19   2.0000      -0.367917       -10.0115 
  20   2.0000      -0.362088        -9.8529 
  21   2.0000      -0.313009        -8.5174 
  22   2.0000      -0.267121        -7.2687 
  23   2.0000      -0.240332        -6.5398 
  24   0.0000       0.011946         0.3251 
  25   0.0000       0.076460         2.0806 
  26   0.0000       0.085369         2.3230 
  27   0.0000       0.138995         3.7822 
  28   0.0000       0.151994         4.1360 
  29   0.0000       0.153616         4.1801 
  30   0.0000       0.177717         4.8359 
  31   0.0000       0.185787         5.0555 
  32   0.0000       0.218067         5.9339 
  33   0.0000       0.243618         6.6292 
  34   0.0000       0.257260         7.0004 
  35   0.0000       0.325988         8.8706 
  36   0.0000       0.379206        10.3187 
  37   0.0000       0.515736        14.0339 
  38   0.0000       0.537688        14.6312 
  39   0.0000       0.545528        14.8446 
  40   0.0000       0.559930        15.2365 
  41   0.0000       0.612631        16.6705 
  42   0.0000       0.639172        17.3928 
  43   0.0000       0.662460        18.0264 
  44   0.0000       0.698216        18.9994 
  45   0.0000       0.712456        19.3869 
  46   0.0000       0.743388        20.2286 
  47   0.0000       0.754849        20.5405 
  48   0.0000       0.772877        21.0311 
  49   0.0000       0.844451        22.9787 
  50   0.0000       0.851768        23.1778 
  51   0.0000       0.866900        23.5895 
  52   0.0000       0.881851        23.9964 
  53   0.0000       0.888156        24.1680 
  54   0.0000       0.908180        24.7128 
  55   0.0000       0.927404        25.2359 
  56   0.0000       0.954402        25.9706 
  57   0.0000       0.960322        26.1317 
  58   0.0000       0.975664        26.5492 
  59   0.0000       1.016924        27.6719 
  60   0.0000       1.060849        28.8672 
  61   0.0000       1.106117        30.0990 
  62   0.0000       1.143748        31.1230 
  63   0.0000       1.243842        33.8467 
  64   0.0000       1.303556        35.4716 
  65   0.0000       1.347698        36.6727 
  66   0.0000       1.387635        37.7595 
  67   0.0000       1.437391        39.1134 
  68   0.0000       1.549290        42.1583 
  69   0.0000       1.575139        42.8617 
  70   0.0000       1.598113        43.4869 
  71   0.0000       1.619238        44.0617 
  72   0.0000       1.669792        45.4373 
  73   0.0000       1.725324        46.9484 
  74   0.0000       1.768593        48.1259 
  75   0.0000       1.807450        49.1832 
  76   0.0000       1.819580        49.5133 
  77   0.0000       1.841113        50.0992 
  78   0.0000       1.851598        50.3845 
  79   0.0000       1.886281        51.3283 
  80   0.0000       1.943802        52.8936 
  81   0.0000       1.966080        53.4997 
  82   0.0000       2.018059        54.9142 
  83   0.0000       2.047002        55.7018 
  84   0.0000       2.056700        55.9656 
  85   0.0000       2.081277        56.6344 
  86   0.0000       2.098938        57.1150 
  87   0.0000       2.167593        58.9832 
  88   0.0000       2.239808        60.9483 
  89   0.0000       2.262746        61.5725 
  90   0.0000       2.300698        62.6052 
  91   0.0000       2.315893        63.0187 
  92   0.0000       2.322047        63.1861 
  93   0.0000       2.360853        64.2421 
  94   0.0000       2.414350        65.6978 
  95   0.0000       2.452911        66.7471 
  96   0.0000       2.508190        68.2513 
  97   0.0000       2.539130        69.0932 
  98   0.0000       2.563991        69.7697 
  99   0.0000       2.640276        71.8456 
 100   0.0000       2.675535        72.8050 
 101   0.0000       2.682687        72.9996 
 102   0.0000       2.710728        73.7627 
 103   0.0000       2.744388        74.6786 
 104   0.0000       2.806862        76.3786 
 105   0.0000       2.842260        77.3418 
 106   0.0000       2.893337        78.7317 
 107   0.0000       2.919979        79.4567 
 108   0.0000       2.925943        79.6190 
 109   0.0000       2.954655        80.4002 
 110   0.0000       3.059857        83.2629 
 111   0.0000       3.177468        86.4633 
 112   0.0000       3.213218        87.4361 
 113   0.0000       3.332269        90.6756 
 114   0.0000       3.363668        91.5301 
 115   0.0000       3.437532        93.5400 
 116   0.0000       3.447304        93.8059 
 117   0.0000       3.501706        95.2863 
 118   0.0000       3.523493        95.8791 

                    ********************************
                    * MULLIKEN POPULATION ANALYSIS *
                    ********************************

-----------------------
MULLIKEN ATOMIC CHARGES
-----------------------
   0 C :   -0.302840
   1 C :   -0.025120
   2 C :    0.536018
   3 N :   -0.554176
   4 O :   -0.428261
   5 O :   -0.476629
   6 H :    0.125999
   7 H :    0.101395
   8 H :    0.102901
   9 H :    0.243437
  10 H :    0.230777
  11 H :    0.325780
  12 H :    0.120720
Sum of atomic charges:   -0.0000000

--------------------------------
MULLIKEN REDUCED ORBITAL CHARGES
--------------------------------
  0 C s       :     3.241141  s :     3.241141
      pz      :     1.053232  p :     3.030817
      px      :     1.047212
      py      :     0.930374
      dz2     :     0.003138  d :     0.030882
      dxz     :     0.008128
      dyz     :     0.008045
      dx2y2   :     0.008680
      dxy     :     0.002891

  1 C s       :     3.179055  s :     3.179055
      pz      :     0.960092  p :     2.788157
      px      :     0.845144
      py      :     0.982921
      dz2     :     0.008457  d :     0.057908
      dxz     :     0.015729
      dyz     :     0.010775
      dx2y2   :     0.012836
      dxy     :     0.010111

  2 C s       :     2.974781  s :     2.974781
      pz      :     0.792509  p :     2.367251
      px      :     0.793721
      py      :     0.781021
      dz2     :     0.026375  d :     0.121950
      dxz     :     0.043746
      dyz     :     0.017887
      dx2y2   :     0.015522
      dxy     :     0.018420

  3 N s       :     3.628805  s :     3.628805
      pz      :     1.484471  p :     3.894885
      px      :     1.079573
      py      :     1.330842
      dz2     :     0.004924  d :     0.030487
      dxz     :     0.012292
      dyz     :     0.001194
      dx2y2   :     0.010682
      dxy     :     0.001395

  4 O s       :     3.857971  s :     3.857971
      pz      :     1.361473  p :     4.542485
      px      :     1.778776
      py      :     1.402236
      dz2     :     0.010116  d :     0.027805
      dxz     :     0.005610
      dyz     :     0.008672
      dx2y2   :     0.002065
      dxy     :     0.001343

  5 O s       :     3.824443  s :     3.824443
      pz      :     1.637818  p :     4.629118
      px      :     1.235865
      py      :     1.755435
      dz2     :     0.003479  d :     0.023067
      dxz     :     0.009464
      dyz     :     0.003578
      dx2y2   :     0.002699
      dxy     :     0.003846

  6 H s       :     0.862701  s :     0.862701
      pz      :     0.005430  p :     0.011301
      px      :     0.002341
      py      :     0.003529

  7 H s       :     0.887111  s :     0.887111
      pz      :     0.003904  p :     0.011494
      px      :     0.005070
      py      :     0.002520

  8 H s       :     0.886031  s :     0.886031
      pz      :     0.005725  p :     0.011068
      px      :     0.001876
      py      :     0.003467

  9 H s       :     0.732796  s :     0.732796
      pz      :     0.007531  p :     0.023767
      px      :     0.004260
      py      :     0.011976

 10 H s       :     0.745470  s :     0.745470
      pz      :     0.008710  p :     0.023753
      px      :     0.009081
      py      :     0.005962

 11 H s       :     0.636532  s :     0.636532
      pz      :     0.013308  p :     0.037688
      px      :     0.014493
      py      :     0.009888

 12 H s       :     0.867819  s :     0.867819
      pz      :     0.003423  p :     0.011461
      px      :     0.005696
      py      :     0.002341


------------------------
MULLIKEN OVERLAP CHARGES
------------------------
B(  0-C ,  1-C ) :   0.6921 B(  0-C ,  3-N ) :  -0.1133 B(  0-C ,  6-H ) :   0.7652 
B(  0-C ,  7-H ) :   0.7617 B(  0-C ,  8-H ) :  -0.0990 B(  0-C , 12-H ) :   0.7377 
B(  1-C ,  2-C ) :   0.6061 B(  1-C ,  3-N ) :   0.6253 B(  1-C ,  4-O ) :  -0.1635 
B(  1-C ,  5-O ) :  -0.1824 B(  1-C ,  6-H ) :  -0.0669 B(  1-C ,  7-H ) :  -0.0593 
B(  1-C ,  8-H ) :   0.7544 B(  1-C ,  9-H ) :  -0.0685 B(  1-C , 10-H ) :  -0.0603 
B(  2-C ,  3-N ) :  -0.0970 B(  2-C ,  4-O ) :   1.2664 B(  2-C ,  5-O ) :   0.5718 
B(  2-C ,  8-H ) :  -0.1048 B(  3-N ,  8-H ) :  -0.0915 B(  3-N ,  9-H ) :   0.6654 
B(  3-N , 10-H ) :   0.6562 B(  4-O ,  5-O ) :  -0.1649 B(  5-O , 11-H ) :   0.5497 
B(  6-H ,  7-H ) :  -0.0620 B(  6-H , 12-H ) :  -0.0514 B(  7-H , 12-H ) :  -0.0568 
B(  9-H , 10-H ) :  -0.0619 


                     *******************************
                     * LOEWDIN POPULATION ANALYSIS *
                     *******************************

----------------------
LOEWDIN ATOMIC CHARGES
----------------------
   0 C :   -0.187906
   1 C :   -0.043172
   2 C :    0.145025
   3 N :   -0.258984
   4 O :   -0.231955
   5 O :   -0.157794
   6 H :    0.080217
   7 H :    0.070565
   8 H :    0.064490
   9 H :    0.129625
  10 H :    0.123973
  11 H :    0.187595
  12 H :    0.078322

-------------------------------
LOEWDIN REDUCED ORBITAL CHARGES
-------------------------------
  0 C s       :     2.918195  s :     2.918195
      pz      :     1.094746  p :     3.206476
      px      :     1.093725
      py      :     1.018005
      dz2     :     0.006369  d :     0.063235
      dxz     :     0.015206
      dyz     :     0.016202
      dx2y2   :     0.019065
      dxy     :     0.006394

  1 C s       :     2.876810  s :     2.876810
      pz      :     1.032806  p :     3.037284
      px      :     0.957124
      py      :     1.047354
      dz2     :     0.018123  d :     0.129078
      dxz     :     0.037808
      dyz     :     0.022205
      dx2y2   :     0.030596
      dxy     :     0.020347

  2 C s       :     2.853563  s :     2.853563
      pz      :     0.973222  p :     2.716197
      px      :     0.925265
      py      :     0.817710
      dz2     :     0.059979  d :     0.285216
      dxz     :     0.107730
      dyz     :     0.040742
      dx2y2   :     0.034334
      dxy     :     0.042430

  3 N s       :     3.217299  s :     3.217299
      pz      :     1.511257  p :     3.983403
      px      :     1.135973
      py      :     1.336173
      dz2     :     0.006954  d :     0.058282
      dxz     :     0.022974
      dyz     :     0.002476
      dx2y2   :     0.021182
      dxy     :     0.004695

  4 O s       :     3.562676  s :     3.562676
      pz      :     1.443255  p :     4.613868
      px      :     1.761396
      py      :     1.409218
      dz2     :     0.020684  d :     0.055411
      dxz     :     0.010786
      dyz     :     0.018064
      dx2y2   :     0.003231
      dxy     :     0.002647

  5 O s       :     3.474245  s :     3.474245
      pz      :     1.637134  p :     4.634744
      px      :     1.270131
      py      :     1.727479
      dz2     :     0.005559  d :     0.048805
      dxz     :     0.020414
      dyz     :     0.004368
      dx2y2   :     0.009973
      dxy     :     0.008492

  6 H s       :     0.880533  s :     0.880533
      pz      :     0.019792  p :     0.039250
      px      :     0.006773
      py      :     0.012686

  7 H s       :     0.890821  s :     0.890821
      pz      :     0.012882  p :     0.038614
      px      :     0.017945
      py      :     0.007787

  8 H s       :     0.896070  s :     0.896070
      pz      :     0.020984  p :     0.039440
      px      :     0.006891
      py      :     0.011565

  9 H s       :     0.792712  s :     0.792712
      pz      :     0.021755  p :     0.077664
      px      :     0.011149
      py      :     0.044760

 10 H s       :     0.798793  s :     0.798793
      pz      :     0.031237  p :     0.077234
      px      :     0.029851
      py      :     0.016146

 11 H s       :     0.698213  s :     0.698213
      pz      :     0.041714  p :     0.114192
      px      :     0.042953
      py      :     0.029524

 12 H s       :     0.882080  s :     0.882080
      pz      :     0.011680  p :     0.039598
      px      :     0.020381
      py      :     0.007537


---------------------------------
LOEWDIN BOND ORDERS (THRESH 0.050000)
---------------------------------
B(  0-C ,  1-C ) :   1.0432 B(  0-C ,  2-C ) :   0.0522 B(  0-C ,  3-N ) :   0.0517 
B(  0-C ,  6-H ) :   0.9577 B(  0-C ,  7-H ) :   0.9544 B(  0-C , 12-H ) :   0.9554 
B(  1-C ,  2-C ) :   0.9898 B(  1-C ,  3-N ) :   1.1464 B(  1-C ,  4-O ) :   0.0861 
B(  1-C ,  5-O ) :   0.0640 B(  1-C ,  8-H ) :   0.8928 B(  2-C ,  3-N ) :   0.0528 
B(  2-C ,  4-O ) :   2.2189 B(  2-C ,  5-O ) :   1.3838 B(  2-C , 11-H ) :   0.0563 
B(  3-N ,  9-H ) :   0.9835 B(  3-N , 10-H ) :   0.9870 B(  4-O ,  5-O ) :   0.2020 
B(  5-O , 11-H ) :   0.9868 

------------------------------------------
LOEWDIN REDUCED ORBITAL POPULATIONS PER MO
-------------------------------------------
THRESHOLD FOR PRINTING IS 0.1%%
                      0         1         2         3         4         5   
                 -19.19075 -19.13009 -14.30983 -10.31021 -10.22407 -10.17667
                   2.00000   2.00000   2.00000   2.00000   2.00000   2.00000
                  --------  --------  --------  --------  --------  --------
 0 C  s               0.0       0.0       0.0       0.0       0.0      99.6
 0 C  py              0.0       0.0       0.0       0.0       0.1       0.0
 1 C  s               0.0       0.0       0.0       0.0      99.4       0.0
 1 C  py              0.0       0.0       0.0       0.0       0.0       0.1
 2 C  s               0.0       0.0       0.0      99.0       0.0       0.0
 3 N  s               0.0       0.0      99.7       0.0       0.0       0.0
 3 N  px              0.0       0.0       0.0       0.0       0.1       0.0
 4 O  s               0.0      99.8       0.0       0.1       0.0       0.0
 4 O  pz              0.0       0.0       0.0       0.3       0.0       0.0
 5 O  s              99.9       0.0       0.0       0.0       0.0       0.0
 5 O  px              0.0       0.0       0.0       0.2       0.0       0.0

                      6         7         8         9        10        11   
                  -1.10110  -1.00628  -0.88884  -0.75048  -0.66538  -0.58177
                   2.00000   2.00000   2.00000   2.00000   2.00000   2.00000
                  --------  --------  --------  --------  --------  --------
 0 C  s               0.1       0.0       2.8      20.4      18.7       2.4
 0 C  pz              0.0       0.0       0.2       0.0       0.2       0.1
 0 C  px              0.0       0.0       0.1       0.1       0.3       0.1
 0 C  py              0.1       0.0       1.7       1.1       1.4       3.9
 1 C  s               1.0       0.3      17.2      11.4       1.9       9.5
 1 C  pz              0.5       0.4       0.9       0.9       1.4       0.2
 1 C  px              1.1       0.0       4.1       6.1       4.7       0.1
 1 C  py              0.1       0.1       0.1       3.8       7.6       1.7
 1 C  dxz             0.0       0.0       0.1       0.2       0.1       0.0
 1 C  dx2y2           0.0       0.0       0.1       0.2       0.2       0.0
 2 C  s              19.3       4.1       0.4       3.1       7.8       1.5
 2 C  pz              0.2      15.9       2.0       3.3       6.5       0.3
 2 C  px              4.9       4.9       2.3       2.0       1.2       9.4
 2 C  py              0.0       3.9       0.4       1.2       0.5       0.5
 2 C  dz2             0.0       1.1       0.0       0.0       0.0       0.0
 2 C  dxz             0.3       0.1       0.0       0.1       0.0       0.4
 2 C  dyz             0.3       0.5       0.0       0.0       0.0       0.0
 2 C  dx2y2           0.3       0.4       0.0       0.0       0.0       0.0
 3 N  s               0.1       0.2      39.0      10.4       0.3       1.6
 3 N  pz              0.0       0.0       1.8       0.1       0.1       0.2
 3 N  px              0.1       0.1       0.8       2.3       1.0       8.5
 3 N  py              0.0       0.0       0.2       1.4       0.2       0.7
 3 N  dxz             0.0       0.0       0.0       0.1       0.0       0.2
 4 O  s              13.6      41.2       1.2       0.4       2.0       0.1
 4 O  pz              2.1       2.7       0.0       0.1       1.0       0.1
 4 O  px              0.1       0.0       0.1       0.0       0.1       1.1
 4 O  py              0.5       0.6       0.0       0.0       0.1       0.1
 4 O  dz2             0.1       0.1       0.0       0.0       0.0       0.0
 4 O  dxz             0.0       0.0       0.0       0.0       0.0       0.1
 5 O  s              41.6      18.6       0.0       0.7       0.6       0.3
 5 O  pz              1.7       0.2       0.0       0.2       0.4       0.0
 5 O  px              0.8       0.2       0.1       3.3      15.4      31.9
 5 O  py              0.4       0.0       0.0       0.1       0.0       0.1
 5 O  dxz             0.0       0.0       0.0       0.0       0.1       0.5
 6 H  s               0.0       0.0       0.5       4.2       5.5       1.7
 6 H  pz              0.0       0.0       0.0       0.2       0.3       0.1
 7 H  s               0.0       0.0       0.5       4.0       7.0       1.3
 7 H  pz              0.0       0.0       0.0       0.1       0.1       0.0
 7 H  px              0.0       0.0       0.0       0.2       0.3       0.0
 8 H  s               0.2       0.0       2.5       2.9       1.0       4.7
 8 H  pz              0.0       0.0       0.1       0.1       0.1       0.2
 9 H  s               0.0       0.1       8.6       4.0       0.0       1.4
 9 H  pz              0.0       0.0       0.1       0.0       0.0       0.0
 9 H  py              0.0       0.0       0.9       0.4       0.0       0.1
10 H  s               0.0       0.0       9.1       3.7       0.6       2.8
10 H  pz              0.0       0.0       0.3       0.2       0.0       0.2
10 H  px              0.0       0.0       0.6       0.2       0.0       0.0
11 H  s               8.4       3.3       0.1       1.3       4.6       8.7
11 H  pz              0.5       0.3       0.0       0.1       0.2       0.5
11 H  px              0.9       0.4       0.0       0.1       0.1       0.1
11 H  py              0.1       0.1       0.0       0.0       0.1       0.1
12 H  s               0.0       0.0       0.4       4.7       5.2       1.7
12 H  px              0.0       0.0       0.0       0.2       0.2       0.1

                     12        13        14        15        16        17   
                  -0.50626  -0.48801  -0.47040  -0.43730  -0.42993  -0.40295
                   2.00000   2.00000   2.00000   2.00000   2.00000   2.00000
                  --------  --------  --------  --------  --------  --------
 0 C  s               0.6       0.2       0.3       0.1       0.0       0.0
 0 C  pz              2.3       5.4       3.3       0.4       0.1      17.5
 0 C  px              1.6       3.1       0.2       9.4       1.0       6.7
 0 C  py              5.0       0.7       1.5       2.2       2.1       0.1
 0 C  dx2y2           0.0       0.1       0.0       0.0       0.0       0.2
 1 C  s               1.2       0.2       0.0       0.0       0.7       0.3
 1 C  pz             20.7       7.2       1.9       2.2       1.4       0.3
 1 C  px              2.6       4.9       0.1       8.7       0.5       3.7
 1 C  py              0.0       5.0       4.4       0.8       0.2       1.1
 1 C  dxz             0.0       0.0       0.0       0.3       0.1       0.0
 1 C  dyz             0.1       0.0       0.0       0.0       0.0       0.1
 1 C  dxy             0.0       0.0       0.0       0.0       0.2       0.0
 2 C  s               1.0       1.1       1.8       0.8       0.8       0.1
 2 C  pz              0.0       3.0       0.8       2.1       2.8       4.2
 2 C  px              8.0       0.5       0.6       2.2       5.1       0.1
 2 C  py              1.3       2.6       7.8       5.8       7.9       1.7
 2 C  dz2             0.0       0.1       0.1       0.1       0.0       0.1
 2 C  dxz             0.0       0.0       0.2       0.2       0.2       0.2
 2 C  dxy             0.0       0.0       0.0       0.0       0.0       0.3
 3 N  s               0.3       0.1       0.2       0.0       0.0       0.0
 3 N  pz             10.4       1.8       0.1       0.6       3.0       0.0
 3 N  px              2.8       1.5       0.0      21.0       6.1       3.2
 3 N  py              5.2      15.7       4.3       0.0       7.5       0.1
 3 N  dz2             0.2       0.0       0.0       0.0       0.0       0.0
 3 N  dxz             0.0       0.0       0.0       0.4       0.2       0.1
 3 N  dx2y2           0.1       0.2       0.0       0.0       0.2       0.0
 4 O  s               1.7       3.9       9.0       1.4       0.8       1.3
 4 O  pz              1.6       3.7      21.8       2.0      10.5       3.7
 4 O  px              3.8       1.1       2.0       0.1       3.8       1.2
 4 O  py              1.3       5.9       0.3       8.9       1.4       9.0
 4 O  dz2             0.0       0.0       0.3       0.0       0.3       0.0
 4 O  dxz             0.1       0.0       0.1       0.0       0.1       0.0
 4 O  dyz             0.1       0.2       0.0       0.2       0.0       0.1
 5 O  s               0.1       1.4       4.2       0.3       1.6       2.6
 5 O  pz              0.0      11.3      11.6       2.0      21.8       4.6
 5 O  px              3.0       0.1       0.3       3.4       1.2       0.1
 5 O  py              1.0       0.0      14.2       6.9       3.2      16.3
 5 O  dyz             0.0       0.0       0.1       0.0       0.0       0.0
 6 H  s               3.5       0.4       0.0       1.3       0.6       5.9
 6 H  py              0.0       0.0       0.0       0.0       0.0       0.1
 7 H  s               0.1       0.1       1.8       2.8       0.6      11.0
 7 H  px              0.0       0.0       0.1       0.0       0.0       0.2
 8 H  s               8.2       5.0       2.0       0.7       0.9       0.0
 8 H  pz              0.1       0.1       0.1       0.0       0.0       0.0
 8 H  py              0.2       0.0       0.0       0.0       0.0       0.0
 9 H  s               4.9       7.4       1.3       0.0       4.6       0.0
 9 H  px              0.0       0.0       0.0       0.2       0.0       0.0
 9 H  py              0.2       0.2       0.0       0.0       0.2       0.0
10 H  s               4.2       0.2       0.4       7.9       6.8       0.8
10 H  pz              0.0       0.0       0.0       0.2       0.1       0.1
10 H  px              0.1       0.1       0.0       0.0       0.1       0.0
10 H  py              0.0       0.1       0.0       0.0       0.0       0.0
11 H  s               0.5       0.3       1.7       0.9       0.2       1.9
11 H  pz              0.0       0.0       0.0       0.0       0.2       0.0
11 H  px              0.0       0.1       0.1       0.0       0.1       0.1
11 H  py              0.0       0.0       0.1       0.2       0.1       0.1
12 H  s               0.9       4.2       0.4       2.4       0.1       0.0
12 H  pz              0.0       0.0       0.0       0.0       0.0       0.1

                     18        19        20        21        22        23   
                  -0.37646  -0.36792  -0.36209  -0.31301  -0.26712  -0.24033
                   2.00000   2.00000   2.00000   2.00000   2.00000   2.00000
                  --------  --------  --------  --------  --------  --------
 0 C  s               0.0       0.2       0.1       0.0       0.1       0.3
 0 C  pz              0.9       8.3      15.4       0.1       0.5       0.0
 0 C  px             30.8       0.0       0.5       0.1       0.4       0.0
 0 C  py              0.0      22.9       5.8       0.7       0.5       1.0
 0 C  dz2             0.0       0.1       0.0       0.0       0.0       0.0
 0 C  dxz             0.6       0.0       0.0       0.0       0.0       0.0
 0 C  dyz             0.0       0.5       0.1       0.0       0.0       0.1
 0 C  dx2y2           0.0       0.0       0.4       0.0       0.0       0.0
 0 C  dxy             0.2       0.0       0.0       0.0       0.1       0.0
 1 C  s               0.0       0.0       0.1       0.0       0.4       0.2
 1 C  pz              0.2       1.4       6.4       0.0       3.4       2.3
 1 C  px              6.7       0.7       0.4       0.0       3.2       0.3
 1 C  py              0.1      19.6       5.8       0.3       0.6       0.8
 1 C  dz2             0.0       0.0       0.0       0.0       0.0       0.5
 1 C  dxz             0.5       0.0       0.0       0.0       0.0       0.4
 1 C  dyz             0.0       0.5       0.0       0.0       0.0       0.3
 1 C  dx2y2           0.1       0.1       0.6       0.0       0.0       0.0
 1 C  dxy             0.3       0.0       0.0       0.0       0.0       0.3
 2 C  s               0.6       0.0       0.8       0.0       0.4       0.2
 2 C  pz              1.2       0.3       4.7       0.8       0.5       0.1
 2 C  px              1.7       0.0       1.8       0.0       1.1       0.3
 2 C  py              1.7       0.5       1.3       3.3       0.0       0.3
 2 C  dz2             0.0       0.0       0.3       0.9       0.1       0.0
 2 C  dxz             0.0       0.0       0.1       0.1       3.4       0.0
 2 C  dyz             0.0       0.0       0.1       0.8       0.0       0.0
 2 C  dx2y2           0.0       0.0       0.2       0.3       0.2       0.0
 2 C  dxy             0.0       0.2       0.0       0.5       0.7       0.0
 3 N  s               0.5       0.6       0.1       0.0       0.3       7.5
 3 N  pz              1.1       6.8       1.6       0.0       0.5      47.3
 3 N  px              8.1       0.2       0.0       0.0       0.1       0.9
 3 N  py              2.4       0.1       4.7       0.0       0.2      24.2
 3 N  dxz             0.1       0.0       0.0       0.0       0.0       0.0
 3 N  dx2y2           0.0       0.1       0.3       0.0       0.0       0.0
 4 O  s               0.4       0.0       1.1       0.0       0.0       0.0
 4 O  pz              3.1       0.2       8.8       9.8       0.4       0.1
 4 O  px              1.8       0.1       2.2       0.0      70.1       0.3
 4 O  py              0.1       1.2       1.4      39.3       0.1       0.1
 5 O  s               0.3       0.1       1.3       0.0       0.2       0.0
 5 O  pz              2.8       0.5      12.0       7.9       4.6       0.2
 5 O  px              0.2       0.0       0.0       0.0       2.8       0.0
 5 O  py              0.0       8.1       0.3      33.4       1.8       0.4
 6 H  s               0.6      16.0       3.3       0.0       0.2       0.4
 6 H  pz              0.0       0.2       0.0       0.0       0.0       0.0
 6 H  px              0.2       0.0       0.0       0.0       0.0       0.0
 6 H  py              0.0       0.0       0.2       0.0       0.0       0.0
 7 H  s              10.1       0.4       3.4       0.0       1.2       0.0
 7 H  pz              0.2       0.0       0.0       0.0       0.0       0.0
 7 H  px              0.0       0.0       0.1       0.0       0.0       0.0
 7 H  py              0.0       0.2       0.0       0.0       0.0       0.0
 8 H  s               0.3       7.4       1.2       0.4       0.3       7.1
 8 H  pz              0.0       0.2       0.0       0.0       0.0       0.0
 9 H  s               1.5       0.9       3.6       0.1       0.2       1.0
 9 H  pz              0.0       0.1       0.0       0.0       0.0       0.8
 9 H  px              0.1       0.0       0.0       0.0       0.0       0.0
10 H  s               0.9       0.3       1.4       0.0       0.0       0.9
10 H  pz              0.0       0.0       0.0       0.0       0.0       0.4
10 H  px              0.1       0.0       0.0       0.0       0.0       0.1
10 H  py              0.0       0.0       0.0       0.0       0.0       0.4
11 H  s               0.6       0.1       1.4       0.0       0.8       0.0
11 H  pz              0.0       0.0       0.0       0.1       0.0       0.0
11 H  px              0.0       0.0       0.1       0.0       0.2       0.0
11 H  py              0.0       0.1       0.0       0.5       0.0       0.0
12 H  s              18.3       0.1       5.4       0.1       0.0       0.1
12 H  pz              0.1       0.0       0.0       0.0       0.0       0.0
12 H  px              0.1       0.0       0.2       0.0       0.0       0.0
12 H  py              0.0       0.2       0.0       0.0       0.0       0.0

                     24        25        26        27        28        29   
                   0.01195   0.07646   0.08537   0.13899   0.15199   0.15362
                   0.00000   0.00000   0.00000   0.00000   0.00000   0.00000
                  --------  --------  --------  --------  --------  --------
 0 C  s               2.0       1.3       1.0       9.0       7.4       2.9
 0 C  pz              0.2       0.4       0.9       0.2       0.4       3.3
 0 C  px              0.3       0.1       0.3       3.5       4.8       0.3
 0 C  py              1.1       0.7       1.5       3.3       1.7       0.4
 0 C  dz2             0.0       0.0       0.1       0.1       0.2       0.1
 0 C  dxz             0.1       0.0       0.0       0.6       0.7       0.2
 0 C  dyz             0.0       0.0       0.1       0.4       0.0       0.6
 0 C  dx2y2           0.0       0.2       0.4       0.0       0.0       0.5
 0 C  dxy             0.0       0.0       0.1       0.3       0.1       0.1
 1 C  s               0.1       2.2       0.9       0.0       1.4       7.2
 1 C  pz              0.0       0.1       3.9       0.7       0.4       8.1
 1 C  px              0.0       0.6       0.9       1.5       0.1       1.1
 1 C  py              0.6       0.3       0.4       0.2       1.6       1.1
 1 C  dz2             0.8       0.0       0.2       0.0       0.0       0.0
 1 C  dxz             0.1       0.0       0.0       0.3       0.0       0.5
 1 C  dyz             0.7       0.0       0.2       0.3       0.1       0.7
 1 C  dx2y2           0.2       0.1       0.6       0.1       0.2       0.3
 1 C  dxy             0.4       0.0       0.1       0.6       0.3       0.2
 2 C  s               0.0       0.8       0.4       0.3       1.2       0.4
 2 C  pz              9.0       0.6       0.2       0.2       0.3       0.6
 2 C  px              0.0       0.6       0.2       0.1       0.3       0.3
 2 C  py             38.5       0.3       1.3       2.2       0.1       0.5
 2 C  dz2             0.5       0.1       0.4       0.1       0.0       0.0
 2 C  dxz             0.1       0.2       0.0       0.0       0.0       0.0
 2 C  dyz             0.3       0.0       0.3       0.1       0.3       0.0
 2 C  dx2y2           0.2       0.4       0.1       0.0       0.2       0.0
 2 C  dxy             0.2       0.0       0.0       0.0       0.1       0.1
 3 N  s               0.0       0.4      11.0       1.9       1.0       2.8
 3 N  pz              0.0       0.0       1.3       0.4       3.9       0.3
 3 N  px              0.1       0.8       1.1       2.6       2.1       0.2
 3 N  py              0.1       0.3       0.7       4.1       0.4       1.5
 3 N  dz2             0.0       0.0       0.1       0.3       0.1       0.0
 3 N  dxz             0.0       0.1       0.4       0.3       0.2       0.3
 3 N  dyz             0.0       0.0       0.1       0.1       0.0       0.2
 3 N  dx2y2           0.0       0.2       0.0       0.3       0.8       0.1
 3 N  dxy             0.0       0.0       0.0       0.1       0.2       0.0
 4 O  s               0.0       0.4       0.2       0.1       0.0       0.1
 4 O  pz              4.9       0.0       0.6       0.0       0.3       0.0
 4 O  px              0.0       0.8       1.0       0.1       0.0       0.1
 4 O  py             20.8       0.3       0.2       0.2       0.0       0.1
 4 O  dz2             0.7       0.0       0.0       0.0       0.1       0.0
 4 O  dyz             0.6       0.0       0.0       0.1       0.0       0.0
 4 O  dx2y2           0.2       0.0       0.0       0.0       0.0       0.0
 5 O  s               0.0       7.0       0.9       0.0       0.1       0.0
 5 O  pz              1.7       3.0       0.7       0.3       0.6       0.3
 5 O  px              0.0       3.9       0.5       0.1       1.4       0.0
 5 O  py              6.8       1.2       0.0       0.0       0.0       0.2
 5 O  dxz             0.2       0.9       0.2       0.0       0.1       0.0
 5 O  dyz             0.1       0.1       0.0       0.0       0.0       0.0
 5 O  dx2y2           0.0       0.3       0.3       0.0       0.0       0.0
 5 O  dxy             0.8       0.1       0.1       0.0       0.1       0.0
 6 H  s               0.5       0.5       0.3      11.2      10.6      10.1
 6 H  pz              0.1       0.1       0.2       2.0       1.7       0.8
 6 H  px              0.0       0.0       0.0       0.2       0.4       0.0
 6 H  py              0.0       0.0       0.1       0.4       0.3       1.4
 7 H  s               1.4       1.2       3.5      19.2       0.2       1.1
 7 H  pz              0.1       0.0       0.1       1.9       0.0       0.0
 7 H  px              0.0       0.3       0.6       2.2       0.0       0.0
 8 H  s               4.2       2.0       6.4       1.6       5.1      29.8
 8 H  pz              0.3       0.3       0.6       0.0       0.8       3.5
 8 H  px              0.0       0.0       0.0       0.0       0.1       0.4
 8 H  py              0.0       0.1       0.6       0.4       0.1       2.3
 9 H  s               0.0       1.9      12.2      17.6       0.9       9.8
 9 H  pz              0.0       0.0       0.3       0.1       0.1       0.4
 9 H  px              0.0       0.0       0.1       0.1       0.2       0.0
 9 H  py              0.0       0.3       2.2       3.1       0.1       1.6
10 H  s               0.2       1.2      22.6       2.8      18.4       1.0
10 H  pz              0.0       0.2       1.7       0.3       1.2       0.1
10 H  px              0.0       0.0       2.2       0.1       2.3       0.1
10 H  py              0.0       0.1       0.3       0.0       0.1       0.2
11 H  s               0.0      51.5       7.7       0.4       2.7       0.1
11 H  pz              0.0       3.2       0.4       0.0       0.2       0.0
11 H  px              0.0       4.8       0.9       0.0       0.3       0.0
11 H  py              0.2       0.6       0.1       0.0       0.1       0.0
12 H  s               0.0       2.3       2.4       0.5      16.8       0.8
12 H  pz              0.0       0.0       0.0       0.0       2.0       0.2
12 H  px              0.0       0.4       0.3       0.3       1.7       0.0
12 H  py              0.0       0.0       0.0       0.2       0.0       0.1

                     30        31        32        33        34        35   
                   0.17772   0.18579   0.21807   0.24362   0.25726   0.32599
                   0.00000   0.00000   0.00000   0.00000   0.00000   0.00000
                  --------  --------  --------  --------  --------  --------
 0 C  s               2.6       0.1       1.4       2.5       0.1       0.0
 0 C  pz             15.1       0.6       4.3       1.5       0.3       0.5
 0 C  px              0.0      13.2       0.9       1.7       0.8       0.1
 0 C  py              3.7       0.1       8.5      15.2       1.7       1.7
 0 C  dz2             1.3       0.1       0.1       0.4       0.4       0.0
 0 C  dxz             0.0       1.9       0.2       0.1       0.0       0.0
 0 C  dyz             1.7       0.0       0.1       0.8       0.1       0.8
 0 C  dx2y2           0.3       0.0       2.4       3.0       0.0       0.4
 0 C  dxy             0.0       0.3       0.5       0.8       0.0       0.3
 1 C  s               3.2       1.1       1.3       4.5       4.2       9.4
 1 C  pz              0.6       0.2       1.3       0.2       8.5       7.2
 1 C  px              0.9       0.7      13.0      13.4       0.7       4.8
 1 C  py              0.1       0.3      10.7      14.5       1.9       0.8
 1 C  dz2             0.4       0.2       0.3       1.1       0.2       0.0
 1 C  dxz             0.1       0.2       3.0       2.8       0.1       1.4
 1 C  dyz             0.8       0.0       0.1       0.4       0.1       0.5
 1 C  dx2y2           0.1       0.4       1.6       0.5       2.8       1.5
 1 C  dxy             0.0       0.2       0.1       0.3       0.0       0.2
 2 C  s               1.4       0.8       9.7       3.9      14.0       5.0
 2 C  pz              1.4       0.2       1.1       1.8       2.4       7.3
 2 C  px              0.8       0.5       0.2       0.8       4.5      19.6
 2 C  py              0.1       0.1       0.3       1.1       0.8       1.9
 2 C  dz2             0.4       0.0       1.2       0.3       0.1       0.8
 2 C  dxz             0.1       0.0       0.0       0.2       0.4       1.6
 2 C  dyz             0.5       0.0       2.8       0.2       1.1       1.1
 2 C  dx2y2           0.0       0.5       0.6       0.2       4.2       0.0
[...]
                      *****************************

  NA   - Mulliken gross atomic population
  ZA   - Total nuclear charge
  QA   - Mulliken gross atomic charge
  VA   - Mayer's total valence
  BVA  - Mayer's bonded valence
  FA   - Mayer's free valence

  ATOM       NA         ZA         QA         VA         BVA        FA
  0 C      6.3028     6.0000    -0.3028     3.8751     3.8751    -0.0000
  1 C      6.0251     6.0000    -0.0251     3.8744     3.8744    -0.0000
  2 C      5.4640     6.0000     0.5360     3.9572     3.9572    -0.0000
  3 N      7.5542     7.0000    -0.5542     2.8403     2.8403    -0.0000
  4 O      8.4283     8.0000    -0.4283     2.1033     2.1033    -0.0000
  5 O      8.4766     8.0000    -0.4766     2.0096     2.0096     0.0000
  6 H      0.8740     1.0000     0.1260     0.9560     0.9560     0.0000
  7 H      0.8986     1.0000     0.1014     0.9570     0.9570     0.0000
  8 H      0.8971     1.0000     0.1029     0.9429     0.9429    -0.0000
  9 H      0.7566     1.0000     0.2434     0.9250     0.9250    -0.0000
 10 H      0.7692     1.0000     0.2308     0.9231     0.9231    -0.0000
 11 H      0.6742     1.0000     0.3258     0.9116     0.9116    -0.0000
 12 H      0.8793     1.0000     0.1207     0.9590     0.9590    -0.0000

  Mayer bond orders larger than 0.100000
B(  0-C ,  1-C ) :   0.9883 B(  0-C ,  6-H ) :   0.9604 B(  0-C ,  7-H ) :   0.9613 
B(  0-C , 12-H ) :   0.9546 B(  1-C ,  2-C ) :   0.9344 B(  1-C ,  3-N ) :   1.0140 
B(  1-C ,  8-H ) :   0.9256 B(  2-C ,  4-O ) :   1.9357 B(  2-C ,  5-O ) :   1.0731 
B(  3-N ,  9-H ) :   0.9023 B(  3-N , 10-H ) :   0.9090 B(  5-O , 11-H ) :   0.8517 


-------
TIMINGS
-------

Total SCF time: 0 days 0 hours 0 min 6 sec 

Total time                  ....       6.761 sec
Sum of individual times     ....       6.375 sec  ( 94.3%)

SCF preparation             ....       0.281 sec  (  4.2%)
Fock matrix formation       ....       6.021 sec  ( 89.1%)
  Startup                   ....       0.001 sec  (  0.0% of F)
  Split-RI-J                ....       0.463 sec  (  7.7% of F)
  Chain of spheres X        ....       4.728 sec  ( 78.5% of F)
  XC integration            ....       1.165 sec  ( 19.4% of F)
    XC Preparation          ....       0.000 sec  (  0.0% of XC)
    Basis function eval.    ....       0.450 sec  ( 38.7% of XC)
    Density eval.           ....       0.212 sec  ( 18.2% of XC)
    XC-Functional eval.     ....       0.093 sec  (  8.0% of XC)
    XC-Potential eval.      ....       0.334 sec  ( 28.6% of XC)
Diagonalization             ....       0.000 sec  (  0.0%)
Density matrix formation    ....       0.006 sec  (  0.1%)
Total Energy calculation    ....       0.003 sec  (  0.0%)
Population analysis         ....       0.026 sec  (  0.4%)
Orbital Transformation      ....       0.005 sec  (  0.1%)
Orbital Orthonormalization  ....       0.000 sec  (  0.0%)
DIIS solution               ....       0.019 sec  (  0.3%)
  MO trafo                  ....       0.000 sec  (  0.0 % of DIIS)
  Orb grad                  ....       0.000 sec  (  0.0 % of DIIS)
  Energy W gradient         ....       0.000 sec  (  0.0 % of DIIS)
  DIIS error                ....       0.004 sec  ( 20.5 % of DIIS)
  DIIS work                 ....       0.012 sec  ( 62.8 % of DIIS)
  Form Q                    ....       0.000 sec  (  0.0 % of DIIS)
  Form QpQm                 ....       0.000 sec  (  0.0 % of DIIS)
  Exp/Cayley                ....       0.000 sec  (  0.0 % of DIIS)
  Orb update                ....       0.000 sec  (  0.0 % of DIIS)
  Wake-sleep                ....       0.001 sec  (  3.9 % of DIIS)
SOSCF solution              ....       0.014 sec  (  0.2%)
  MO trafo                  ....       0.005 sec  ( 34.6 % of SOSCF)
  Orb grad                  ....       0.001 sec  (  3.7 % of SOSCF)
  Rot update                ....       0.002 sec  ( 14.4 % of SOSCF)
  Step                      ....       0.006 sec  ( 39.5 % of SOSCF)
Finished LeanSCF after   6.8 sec

Maximum memory used throughout the entire LEANSCF-calculation: 12.3 MB


-------------------------------------------------------------------------------
                          DFT DISPERSION CORRECTION                            
                                                                               
                              DFTD3 V3.1  Rev 1                                
                          USING Becke-Johnson damping                          
-------------------------------------------------------------------------------
The B3LYP functional is recognized
Active option DFTDOPT                   ...         4   

molecular C6(AA) [au] = 1330.180950 


            DFT-D V3
 parameters
 s6 scaling factor         :     1.0000 
 a1 scaling factor         :     0.3981 
 s8 scaling factor         :     1.9889 
 a2 scaling factor         :     4.4211 
 ad hoc parameters k1-k3   :    16.0000     1.3333    -4.0000 

 Edisp/kcal,au: -10.024307629872  -0.015974749346 
 E6   /kcal   :  -4.911650645 
 E8   /kcal   :  -5.112656985 
 % E8         :  51.002594630 

-------------------------   ----------------
Dispersion correction           -0.015974749
-------------------------   ----------------


-------------------------   --------------------
FINAL SINGLE POINT ENERGY      -323.585153184727
-------------------------   --------------------



           ************************************************************
           *        Program running with 2 parallel MPI-processes     *
           *              working on a common directory               *
           ************************************************************
------------------------------------------------------------------------------
                            ORCA SCF RESPONSE CALCULATION
------------------------------------------------------------------------------

GBWName                                 ... /home/friday_code/Desktop/DP-Regenrate-Results/calculations/Ala/Ala-2/Ala_InterFrag.gbw
Number of atoms                         ...     13
Number of basis functions               ...    119
Max core memory                         ...   3000 MB

Electric field perturbation             ... YES
Quadrupolar field perturbation          ...  NO
Magnetic field perturbation (no GIAO)   ...  NO
Magnetic field perturbation (with GIAO) ...  NO
Linear momentum (velocity) perturbation ...  NO
Spin-orbit coupling perturbation        ...  NO
Choice of electric origin               ... Center of mass
Position of electric origin             ...    -1.297219   -12.151017     4.372539
Choice of magnetic origin               ... GIAO
Position of magnetic origin             ...     0.000000     0.000000     0.000000
Nuclear geometric perturbations         ...  NO (  39 perturbations)
Nucleus-orbit perturbations             ...  NO (   0 perturbations)
Spin-dipole/Fermi contact perturbations ...  NO (   0 perturbations)

Total number of real perturbations      ...      3
Total number of imaginary perturbations ...      0
Total number of triplet perturbations   ...      0
Total number of SOC perturbations       ...      0

Using XC Grid                  ... (/home/friday_code/Desktop/DP-Regenrate-Results/calculations/Ala/Ala-2/Ala_InterFrag.grid_cpscf.tmp) 
Recalculating density on grid  ... (/home/friday_code/Desktop/DP-Regenrate-Results/calculations/Ala/Ala-2/Ala_InterFrag.grho_cpscf0.tmp) done
Calculating the xc-kernel      ... (/home/friday_code/Desktop/DP-Regenrate-Results/calculations/Ala/Ala-2/Ala_InterFrag.fxc_cpscf0.tmp) done

                                **********************
                                * REAL PERTURBATIONS *
                                **********************



-------------------
SHARK CP-SCF DRIVER
-------------------

Dimension of the orbital basis          ...    119
Dimension of the CPSCF-problem          ...   2280
Number of operators                     ...      1
Max. number of iterations               ...    128
Convergence Tolerance                   ... 1.0e-04
Number of perturbations                 ...      3
Perturbation type                       ... REAL

----------------------------
POPLE LINEAR EQUATION SOLVER
----------------------------

  ITERATION   0:   ||err||_max =   9.6914e+00 (   0.3 sec   0/  3 done)
  ITERATION   1:   ||err||_max =   7.1001e-01 (   0.3 sec   0/  3 done)
  ITERATION   2:   ||err||_max =   2.1862e-01 (   0.3 sec   0/  3 done)
  ITERATION   3:   ||err||_max =   4.9344e-02 (   0.3 sec   0/  3 done)
  ITERATION   4:   ||err||_max =   1.5762e-02 (   0.3 sec   0/  3 done)
  ITERATION   5:   ||err||_max =   4.0363e-03 (   0.3 sec   0/  3 done)
  ITERATION   6:   ||err||_max =   1.3328e-03 (   0.3 sec   0/  3 done)
  ITERATION   7:   ||err||_max =   2.9915e-04 (   0.3 sec   0/  3 done)
  ITERATION   8:   ||err||_max =   6.8650e-05 (   0.3 sec   3/  3 done)

CP-SCF equations solved in   2.6 sec
Response densities calculated in   0.0 sec

Maximum memory used throughout the entire SCFRESP-calculation: 12.8 MB


           ************************************************************
           *        Program running with 2 parallel MPI-processes     *
           *              working on a common directory               *
           ************************************************************

------------------------------------------------------------------------------
                              ORCA PROPERTY CALCULATIONS
------------------------------------------------------------------------------

GBWName                                 ... /home/friday_code/Desktop/DP-Regenrate-Results/calculations/Ala/Ala-2/Ala_InterFrag.gbw
Number of atoms                         ...     13
Number of basis functions               ...    119
Max core memory                         ...   3000 MB

Electric properties:
Dipole moment                           ... YES
Quadrupole moment                       ...  NO
Static polarizability (Dipole/Dipole)   ... YES
Static polarizability (Dipole/Quad.)    ...  NO
Static polarizability (Quad./Quad.)     ...  NO
Static polarizability (Velocity)        ...  NO
Static hyperpolarizability              ...  NO

Atomic electric properties:
Dipole moment                           ...  NO
Quadrupole moment                       ...  NO
Static polarizability                   ...  NO

Choice of electric origin               ... Center of mass
Position of electric origin             ...    -1.297219   -12.151017     4.372539

General magnetic properties:
Magnetizability                         ...  NO

EPR properties:
g-Tensor (aka g-matrix)                 ...  NO
Zero-Field splitting spin-orbit         ...  NO
Zero-field splitting spin-spin          ...  NO
Hyperfine couplings                     ...  NO (   0 nuclei)
Quadrupole couplings                    ...  NO (   0 nuclei)
Contact density                         ...  NO (   0 nuclei)

NMR properties:
Chemical shifts                         ...  NO (   0 nuclei)
Spin-rotation constants                 ...  NO (   0 nuclei)
Spin-spin couplings                     ...  NO (   0 nuclei,    0 pairs)

Choice of magnetic origin               ... GIAO
Position of magnetic origin             ...     0.000000     0.000000     0.000000

Properties with geometric perturbations:
SCF Hessian                             ...  NO
IR spectrum                             ...  NO
VCD spectrum                            ...  NO
X-ray spectroscopy properties:
SCF XES/XAS/RIXS spectra                ...  NO

SCF SOC stabilization energy            ...  NO
Diagonal Born-Oppenheimer correction    ...  NO

-------------
DIPOLE MOMENT
-------------

Method             : SCF
Type of density    : Electron Density
Multiplicity       :   1
Irrep              :   0
Energy             :  -323.5691784353804223 Eh
Basis              : AO
                                X                 Y                 Z
Electronic contribution:      3.897515872      -3.277286952       3.253695789
Nuclear contribution   :     -3.739100764       3.235615948      -4.223696663
                        -----------------------------------------
Total Dipole Moment    :      0.158415107      -0.041671004      -0.970000874
                        -----------------------------------------
Magnitude (a.u.)       :      0.983734474
Magnitude (Debye)      :      2.500454318



--------------------
Rotational spectrum 
--------------------
 
Rotational constants in cm-1:             0.168217             0.108056             0.072685 
Rotational constants in MHz :          5043.028514          3239.430129          2179.045755 

Dipole components along the rotational axes: 
x,y,z [a.u.] :    -0.166708     0.649943    -0.719386 
x,y,z [Debye]:    -0.423739     1.652024    -1.828534 

 

Dipole moment calculation done in   0.0 sec 


---------------------------------------------------
STATIC POLARIZABILITY TENSOR (Dipole/Dipole)
---------------------------------------------------

Method             : SCF
Type of density    : Electron Density
Type of derivative : Electric Field (Direction=X)
Multiplicity       :   1
Irrep              :   0
Basis              : AO

The raw cartesian tensor (atomic units):
      49.884901901         0.020138978         1.135717970  
       0.020138978        39.686052090        -7.419924849  
       1.135717970        -7.419924849        42.754536246  
diagonalized tensor: 
      33.610313573        48.325261186        50.389915479  

Orientation: 
      -0.045118037        -0.477551887        -0.877444333  
       0.772979418        -0.573089878         0.272159532  
       0.632824764         0.665967107        -0.394994470  

Isotropic polarizability :  44.10850


Polarizability tensor calculation done in   0.0 sec 

Maximum memory used throughout the entire PROP-calculation: 6.6 MB

--------------------------------
SUGGESTED CITATIONS FOR THIS RUN
--------------------------------

Below you find a list of papers that are relevant to this ORCA run
We neither can nor want to force you to cite these papers, but we appreciate if you do
You receive ORCA, which is the product of decades of hard work by many enthusiastic individuals, for free
The only thing we kindly ask in return is that you cite our papers,
We deeply appreciate it, if you show your appreciation for ORCA by not just citing the generic ORCA reference.

Please note that relegating all ORCA citations to the supporting information does *not* help us.
SI sections are not indexed - citations you put there will not count into any citation statistics
But we need these citations in order to attract the funding resources that allow us to do what we are doing

Therefore, if you are a happy ORCA user, please consider citing a few of the papers listed below in the main body of your paper

In addition to the list printed below, the program has created the file /home/friday_code/Desktop/DP-Regenrate-Results/calculations/Ala/Ala-2/Ala_InterFrag.bibtex that contains the list in bibtex format
You can import this file easily into all common literature databanks and citation aid programs

It goes without saying that in many instances, there are alternative algorithms to achieve similar
results as the ones you have gotten from ORCA. It is, of course, also the case that in some instances
ORCA just re-implements algorithms worked out by others. We are fully aware of that and we are also
fully appreciative of our colleagues work. Hence this citation list should not be read as indicating
that the listed papers, which are focused on our own work, are the only ones worth citing. It simply
meant to make it easier for users to cite ORCA specific papers. It is not a substitute for doing your
own literature research and citing the relevant literature in a scientifically appropriate manner.

List of essential papers. We consider these as the minimum necessary citations

  1. Neese, F.
     Software update: the ORCA program system, version 6.0
     WIRES Comput. Molec. Sci. 2025 15(1), e70019
     doi.org/10.1002/wcms.70019

List of papers to cite with high priority. The work reported in these papers was absolutely
necessary for this run to complete.
Our perspective: the developers of density functionals and basis sets usually get cited in chemistry papers
Good! But without the algorithms to do something with them, the functionals or basis sets would not do anything.
Hence, in our opinion, the algorithm design and method developments papers are equally worthy of getting cited

  1. Neese, F.
     An improvement of the resolution of the identity approximation for the formation of the Coulomb matrix
     J. Comp. Chem. 2003 24(14), 1740-1747
     doi.org/10.1002/jcc.10318
  2. Neese, F.; Wennmohs, F.; Hansen, A.; Becker, U.
     Efficient, approximate and parallel Hartree-Fock and hybrid DFT calculations. A 'chain-of-spheres' algorithm for the Hartree-Fock exchange
     Chem. Phys. 2009 356(1-3), 98-109
     doi.org/10.1016/j.chemphys.2008.10.036
  3. Grimme, S.; Antony, J.; Ehrlich, S.; Krieg, H.
     A consistent and accurate ab initio parametrization of density functional dispersion correction (DFT-D) for the 94 elements H-Pu
     J. Chem. Phys. 2010 132 , 154104
     doi.org/10.1063/1.3382344
  4. Grimme, S.; Ehrlich, S.; Goerigk, L.
     Effect of the damping function in dispersion corrected density functional theory
     J. Comput. Chem. 2011 32(7), 1456-1465
     doi.org/10.1002/jcc.21759
  5. Helmich-Paris, B.; de Souza, B.; Neese, F.; Izsák, R.
     An improved chain of spheres for exchange algorithm
     J. Chem. Phys. 2021 155(10), 104109
     doi.org/10.1063/5.0058766
  6. Neese, F.
     The SHARK Integral Generation and Digestion System
     J. Comp. Chem. 2022 44(3), 381
     doi.org/10.1002/jcc.26942

List of suggested additional citations. These are papers that are important in the 'surrounding' of 
of this run, or papers that preceded the highly important papers. If you like your results we are grateful for a citation.

  1. Izsak, R.; Neese, F.
     An overlap fitted chain of spheres exchange method
     J. Chem. Phys. 2011 135 , 144105
     doi.org/10.1063/1.3646921
  2. Izsak, R.; Hansen, A.; Neese, F.
     The resolution of identity and chain of spheres approximations for the LPNO-CCSD singles Fock term
     Molec. Phys. 2012 110 , 2413-2417
     doi.org/10.1080/00268976.2012.687466
  3. Neese, F.
     The ORCA program system
     WIRES Comput. Molec. Sci. 2012 2(1), 73-78
     doi.org/10.1002/wcms.81
  4. Izsak, R.; Neese, F.; Klopper, W.
     Robust fitting techniques in the chain of spheres approximation to the Fock exchange: The role of the complementary space
     J. Chem. Phys. 2013 139 , 
     doi.org/10.1063/1.4819264
  5. Neese, F.
     Software update: the ORCA program system, version 4.0
     WIRES Comput. Molec. Sci. 2018 8(1), 1-6
     doi.org/10.1002/wcms.1327
  6. Neese, F.; Wennmohs, F.; Becker, U.; Riplinger, C.
     The ORCA quantum chemistry program package
     J. Chem. Phys. 2020 152(22), 224108
     doi.org/10.1063/5.0004608
  7. Neese, F.
     Software update: The ORCA program system—Version 5.0
     WIRES Comput. Molec. Sci. 2022 12(1), e1606
     doi.org/10.1002/wcms.1606

List of optional additional citations

  1. Neese, F.
     Approximate second-order SCF convergence for spin unrestricted wavefunctions
     Chem. Phys. Lett. 2000 325(1-3), 93-98
     doi.org/10.1016/s0009-2614(00)00662-x

Timings for individual modules:

Sum of individual times          ...       11.470 sec (=   0.191 min)
Startup calculation              ...        0.794 sec (=   0.013 min)   6.9 %
SCF iterations                   ...        7.257 sec (=   0.121 min)  63.3 %
SCF Response                     ...        3.054 sec (=   0.051 min)  26.6 %
Property calculations            ...        0.365 sec (=   0.006 min)   3.2 %
                             ****ORCA TERMINATED NORMALLY****
TOTAL RUN TIME: 0 days 0 hours 0 minutes 11 seconds 856 msec
