
                                 *****************
                                 * O   R   C   A *
                                 *****************

                                            #,                                       
                                            ###                                      
                                            ####                                     
                                            #####                                    
                                            ######                                   
                                           ########,                                 
                                     ,,################,,,,,                         
                               ,,#################################,,                 
                          ,,##########################################,,             
                       ,#########################################, ''#####,          
                    ,#############################################,,   '####,        
                  ,##################################################,,,,####,       
                ,###########''''           ''''###############################       
              ,#####''   ,,,,##########,,,,          '''####'''          '####       
            ,##' ,,,,###########################,,,                        '##       
           ' ,,###''''                  '''############,,,                           
         ,,##''                                '''############,,,,        ,,,,,,###''
      ,#''                                            '''#######################'''  
     '                                                          ''''####''''         
             ,#######,   #######,   ,#######,      ##                                
            ,#'     '#,  ##    ##  ,#'     '#,    #''#        ,####,    ,#,          
            ##       ##  ##   ,#'  ##            #'  '#       #'       ,# #          
            ##       ##  #######   ##           ,######,      #####,      #          
            '#,     ,#'  ##    ##  '#,     ,#' ,#      #,     #,   #      #          
             '#######'   ##     ##  '#######'  #'      '#     '####' #    #          



                #########################################################
                #                        -***-                          #
                #          Department of theory and spectroscopy        #
                #                                                       #
                #                      Frank Neese                      #
                #                                                       #
                #     Directorship, Architecture, Infrastructure        #
                #                    SHARK, DRIVERS                     #
                #        Core code/Algorithms in most modules           #
                #                                                       #
                #        Max Planck Institute fuer Kohlenforschung      #
                #                Kaiser Wilhelm Platz 1                 #
                #                 D-45470 Muelheim/Ruhr                 #
                #                      Germany                          #
                #                                                       #
                #                  All rights reserved                  #
                #                        -***-                          #
                #########################################################


                         Program Version 6.1.1  -  RELEASE   -
                                (GIT: $487d211c$)
                          ($2025-11-21 10:33:24 +0100$)
                                                                         
                                  - NO-DMRG VERSION -                    
                                                                         


 With contributions from (in alphabetic order):
[Max-Planck-Institut fuer Kohlenforschung]                               
  Daniel Aravena         : Magnetic Suceptibility                        
  Michael Atanasov       : Ab Initio Ligand Field Theory (pilot matlab implementation)
  Alexander A. Auer      : GIAO ZORA, VPT2 properties, NMR spectrum      
  Ute Becker             : All parallelization in ORCA, NUMFREQ, NUMCALC 
  Giovanni Bistoni       : ED, misc. LED, open-shell LED, HFLD           
  Dmytro Bykov           : pre 5.0 version of the SCF Hessian            
  Marcos Casanova-Páez   : Triplet and SCS-CIS(D). UHF-(DLPNO)-IP/EA/STEOM-CCSD. UHF-CVS-IP/STEOM-CCSD   
  Vijay G. Chilkuri      : MRCI spin determinant printing, contributions to CSF-ICE 
  Pauline Colinet        : FMM embedding                                 
  Dipayan Datta          : RHF DLPNO-CCSD density                        
  Achintya Kumar Dutta   : EOM-CC, STEOM-CC                              
  Nicolas Foglia         : Exact transition moments, OPA infrastructure, MCD improvements    
  Dmitry Ganyushin       : Spin-Orbit,Spin-Spin,Magnetic field MRCI      
  Miquel Garcia-Rates    : C-PCM and meta-GGA Hessian, CCSD/C-PCM, Gaussian charge scheme 
  Tiago L. C. Gouveia    : GS-ROHF, GS-ROCIS                             
  Yang Guo               : DLPNO-NEVPT2, F12-NEVPT2, CIM, IAO-localization        
  Andreas Hansen         : Spin unrestricted coupled pair/coupled cluster methods 
  Ingolf Harden          : AUTO-CI MPn and infrastructure                
  Benjamin Helmich-Paris : MC-RPA, TRAH-(SCF,CASSCF), AVAS, COSX integrals, SCF dyn. polar., MC-PDFT, srDFT 
  Lee Huntington         : MR-EOM, pCC                                   
  Robert Izsak           : Overlap fitted RIJCOSX, COSX-SCS-MP3, EOM     
  Riya Kayal             : Wick's Theorem for AUTO-CI, AUTO-CI UHF-CCSDT 
  Emily Kempfer          : AUTO-CI RHF CISDT and CCSDT, approximate NEVPT4
  Christian Kollmar      : KDIIS, OOCD, Brueckner-CCSD(T), CCSD density, CASPT2, CASPT2-K, improved NEVPT2 
  Axel Koslowski         : Symmetry handling                             
  Simone Kossmann        : meta-GGA functionals, TD-DFT gradient, OOMP2, (MP2 Hessian; deprecated post 5.0) 
  Lucas Lang             : DCDCAS, Hyperfine gauge corrections, ICE-SOC+SSC
  Marvin Lechner         : AUTO-CI (C++ implementation), FIC-MRCC        
  Spencer Leger          : CASSCF response                               
  Dagmar Lenk            : GEPOL surface, SMD, ORCA-2-JSON               
  Dimitrios Liakos       : Extrapolation schemes; Compound Job, Property file
  Dimitrios Manganas     : Further ROCIS development; embedding schemes. LFT, Crystal Embedding 
  Dimitrios Pantazis     : SARC Basis sets                               
  Anastasios Papadopoulos: AUTO-CI, single reference methods and gradients 
  Taras Petrenko         : pre 6.0 DFT Hessian and TD-DFT gradient,  ECA, NRVS 
  Petra Pikulova         : Analytic Raman intensities                    
  Peter Pinski           : DLPNO-MP2, DLPNO-MP2 Gradient                 
  Shashank Vittal Rao    : ES-AILFT, MagRelax                            
  Christoph Reimann      : Effective Core Potentials                     
  Marius Retegan         : Local ZFS, SOC                                
  Christoph Riplinger    : Optimizer, TS searches, QM/MM, DLPNO-CCSD(T), (RO)-DLPNO pert. Triples 
  Michael Roemelt        : Original ROCIS implementation, recursive CI coupling coefficients
  Masaaki Saitow         : Open-shell DLPNO-CCSD energy and density      
  Barbara Sandhoefer     : DKH picture change effects                    
  Yorick L. A. Schmerwitz: GMF and freeze-and-release deltaSCF, NEB S-IDPP initial path                    
  Kantharuban Sivalingam : CASSCF convergence/infrastructure, NEVPT2, NEVPT3, NEVPT4(SD), FIC-MRCI and CEPA variants
  Bernardo de Souza      : ESD, SOC TD-DFT                               
  Georgi L. Stoychev     : AutoAux, RI-MP2 NMR, DLPNO-MP2 response, X2C  
  Van Anh Tran           : RI-MP2 g-tensors                              
  Willem Van den Heuvel  : Paramagnetic NMR                              
  Zikuan Wang            : NOTCH, Electric field optimization            
  Frank Wennmohs         : Technical directorship and infrastructure     
  Hang Xu                : AUTO-CI-Response properties                   
                                                                         
[FACCTs GmbH]                                                            
  Markus Bursch, Nicolas Foglia, Miquel Garcia-Rates, Ingolf Harden, Hagen Neugebauer, Anastasios Papadopoulos, 
  Christoph Riplinger, Bernardo de Souza, Georgi L. Stoychev                                                    
                                                                 
  APM, various basis sets, CI-OPT, improved COSX, DLPNO-Multilevel,           
  DOCKER, DRACO, updates on ESD, Fragmentator, GOAT, IRC, LR-CPCM, L-BFGS, MBIS, meta-GGA TD-DFT gradient, ML-optimized integration grids, 
  MM, NACMEs, nearIR, NEB, NEB-TS, NL-DFT gradient (VV10), 2- and 3-layer-ONIOM, interface openCOSMO-RS, QMMM,   
  Crystal-QMMM, RESP, rigid body optimization, SF, symmetry and pop. for TD-DFT, various functionals, SOLVATOR                                   
                                                                         
[Other institutions]                                                     
  V. Asgeirsson          : NEB                                           
  Christoph Bannwarth    : sTDA-DFT, sTD-DFT, PBEh-3c, B97-3c, D3        
  Giovanni Bistoni       : ETS/NOCV, ADLD/ADEX, COVALED                  
  Martin Brehm           : Molecular dynamics                            
  Ronald Cardenas        : ETS/NOCV                                      
  Martina Colucci        : COVALED                                       
  Sebastian Ehlert       : rSCAN, r2SCAN, r2SCAN-3c, D4, dhf basis sets  
  Marvin Friede          : D4 for Fr, Ra, Ac-Lr                          
  Lars Goerigk           : TD-DFT with DH, B97 family of functionals     
  Stefan Grimme          : VdW corrections, initial TS optimization, DFT functionals, gCP, sTDA/sTD-DF 
  Waldemar Hujo          : DFT-NL                                        
  H. Jonsson             : NEB                                           
  Holger Kruse           : gCP                                           
  Marcel Mueller         : wB97X-3c, vDZP basis set                      
  Hagen Neugebauer       : wr2SCAN, Native XTB                           
  Gianluca Regni         : ADLD/ADEX                                     
  Tobias Risthaus        : pre 6.0 range-separated hybrid DFT and stability analysis
  Lukas Wittmann         : regularized MP2, r2SCAN double-hybrids, wr2SCAN        
                                                                         
We gratefully acknowledge several colleagues who have allowed us to      
interface, adapt or use parts of their codes:                            
  Ed Valeev, F. Pavosevic, A. Kumar             : LibInt (2-el integral package), F12 methods 
  Garnet Chan, S. Sharma, J. Yang, R. Olivares  : DMRG                   
  Ulf Ekstrom                                   : XCFun DFT Library      
  Mihaly Kallay                                 : mrcc  (arbitrary order and MRCC methods)
  Frank Weinhold                                : gennbo (NPA and NBO analysis)           
  Simon Mueller                                 : openCOSMO-RS                            
  Christopher J. Cramer and Donald G. Truhlar   : smd solvation model                     
  S Lehtola, MJT Oliveira, MAL Marques          : LibXC Library                           
  Liviu Ungur et al                             : ANISO software                          


 Your calculation uses the libint2 library for the computation of 2-el integrals
 For citations please refer to: http://libint.valeyev.net

 Your ORCA version has been built with support for libXC version: 7.0.0
 For citations please refer to: https://libxc.gitlab.io

 This ORCA versions uses:
   CBLAS   interface :  Fast vector & matrix operations
   LAPACKE interface :  Fast linear algebra routines
   SCALAPACK package :  Parallel linear algebra routines
   Shared memory     :  Shared parallel matrices
   BLAS/LAPACK       :  OpenBLAS 0.3.29  USE64BITINT DYNAMIC_ARCH NO_AFFINITY SkylakeX SINGLE_THREADED
        Core in use  :  SkylakeX
   Copyright (c) 2011-2014, The OpenBLAS Project


  ***********************************
  * Starting time: Sat Mar 28 20:10:48 2026
  * Host name:     6f73ee06a95c
  * Process ID:    497
  * Working dir.:  /kaggle/working
  ***********************************

NOTE: MaxCore=3000 MB was set to SCF,MP2,MDCI,CIPSI,MRCI,RASCI and CIS
      => If you want to overwrite this, your respective input block should be placed after the MaxCore statement
Your calculation utilizes the atom-pairwise dispersion correction
with the Becke-Johnson damping scheme (D3BJ)


Warning: RI is on but no J-basis has been assigned. Assigning Def2/J (nothing to worry about!)
================================================================================

----- Orbital basis set information -----
Your calculation utilizes the basis: 6-31G(d,p)
   H-He, Li-Ne : W. J. Hehre, R. Ditchfield and J.A. Pople, J. Chem. Phys. 56, 2257 (1972).
                 Note: He and Ne are unpublished basis sets taken from the Gaussian program.
                 Note: Li and B from J. D. Dill and J. A. Pople, J. Chem. Phys. 62, 2921 (1975).
   Na - Ar     : M. M. Francl, W. J. Pietro, W. J. Hehre, J. S. Binkley, M. S. Gordon, 
                 D. J. DeFrees and J. A. Pople, J. Chem. Phys. 77, 3654 (1982).
   K - Zn      : V. A. Rassolov, J. A. Pople, M. A. Ratner, and T. L. Windus, J. Chem. Phys. 109, 1223 (1998).

----- AuxJ basis set information -----
Your calculation utilizes the auxiliary basis: def2/J
   H-Rn: F. Weigend, Phys. Chem. Chem. Phys. 8, 1057 (2006).
   Fr-Lr: K. Eichkorn, F. Weigend, O. Treutler, R. Ahlrichs; Theor. Chem. Acc. 97, 119 (1997).

================================================================================
                                        WARNINGS
                       Please study these warnings very carefully!
================================================================================


================================================================================
                                       INPUT FILE
================================================================================
NAME = /kaggle/working/Trp-OH-2/Trp-OH_InterFrag.inp
|  1> 
|  2> !RKS B3LYP 6-31G(d,p) TightSCF D3BJ # def2-TZVPP
|  3> 
|  4> %pal nprocs 2 end
|  5> %maxcore 3000
|  6> 
|  7> %elprop
|  8>   Polar 1      # polarizability via CP-SCF
|  9> end
| 10> 
| 11> %output
| 12>   PrintLevel Normal
| 13>   Print[ P_OrbEn ] 2
| 14> end
| 15> 
| 16> *xyz 0 1
| 17>   O     -2.582731   -2.743417   -0.457877
| 18>   O      1.582731   -0.810427    1.751610
| 19>   O      2.268984   -2.137513    0.064917
| 20>   N     -1.148713    2.518550    0.354104
| 21>   N      4.079728   -0.074745   -0.649917
| 22>   C      0.495856    1.238998   -0.523149
| 23>   C      1.828454    0.811786   -1.057601
| 24>   C     -0.672808    0.415757   -0.328612
| 25>   C      2.805492    0.236946    0.001535
| 26>   C     -1.685524    1.251724    0.221426
| 27>   C      0.154321    2.503637   -0.094198
| 28>   C     -0.955776   -0.943448   -0.568019
| 29>   C     -2.958800    0.763843    0.531151
| 30>   C     -2.222980   -1.421253   -0.255853
| 31>   C     -3.218993   -0.579481    0.288031
| 32>   C      2.217111   -1.034300    0.585034
| 33>   H      1.706620    0.057056   -1.842809
| 34>   H      2.338039    1.669687   -1.510569
| 35>   H      2.885480    0.966831    0.817668
| 36>   H      0.748875    3.406542   -0.079804
| 37>   H     -1.636831    3.329479    0.704729
| 38>   H     -0.203577   -1.612810   -0.976180
| 39>   H     -3.722937    1.411945    0.949320
| 40>   H     -4.192220   -1.003860    0.512714
| 41>   H      4.747995   -0.363705    0.062864
| 42>   H      4.444397    0.796806   -1.030584
| 43>   H     -1.825383   -3.215130   -0.835420
| 44>   H      1.163391   -1.645798    2.029387
| 45> 
| 46> *
| 47> 
| 48>                          ****END OF INPUT****
================================================================================

                       ****************************
                       * Single Point Calculation *
                       ****************************

---------------------------------
CARTESIAN COORDINATES (ANGSTROEM)
---------------------------------
  O     -2.582731   -2.743417   -0.457877
  O      1.582731   -0.810427    1.751610
  O      2.268984   -2.137513    0.064917
  N     -1.148713    2.518550    0.354104
  N      4.079728   -0.074745   -0.649917
  C      0.495856    1.238998   -0.523149
  C      1.828454    0.811786   -1.057601
  C     -0.672808    0.415757   -0.328612
  C      2.805492    0.236946    0.001535
  C     -1.685524    1.251724    0.221426
  C      0.154321    2.503637   -0.094198
  C     -0.955776   -0.943448   -0.568019
  C     -2.958800    0.763843    0.531151
  C     -2.222980   -1.421253   -0.255853
  C     -3.218993   -0.579481    0.288031
  C      2.217111   -1.034300    0.585034
  H      1.706620    0.057056   -1.842809
  H      2.338039    1.669687   -1.510569
  H      2.885480    0.966831    0.817668
  H      0.748875    3.406542   -0.079804
  H     -1.636831    3.329479    0.704729
  H     -0.203577   -1.612810   -0.976180
  H     -3.722937    1.411945    0.949320
  H     -4.192220   -1.003860    0.512714
  H      4.747995   -0.363705    0.062864
  H      4.444397    0.796806   -1.030584
  H     -1.825383   -3.215130   -0.835420
  H      1.163391   -1.645798    2.029387

----------------------------
CARTESIAN COORDINATES (A.U.)
----------------------------
  NO LB      ZA    FRAG     MASS         X           Y           Z
   0 O     8.0000    0    15.999   -4.880654   -5.184307   -0.865262
   1 O     8.0000    0    15.999    2.990928   -1.531485    3.310063
   2 O     8.0000    0    15.999    4.287758   -4.039314    0.122675
   3 N     7.0000    0    14.007   -2.170753    4.759370    0.669160
   4 N     7.0000    0    14.007    7.709569   -0.141248   -1.228165
   5 C     6.0000    0    12.011    0.937032    2.341367   -0.988608
   6 C     6.0000    0    12.011    3.455277    1.534053   -1.998576
   7 C     6.0000    0    12.011   -1.271423    0.785667   -0.620987
   8 C     6.0000    0    12.011    5.301612    0.447763    0.002901
   9 C     6.0000    0    12.011   -3.185179    2.365416    0.418434
  10 C     6.0000    0    12.011    0.291624    4.731188   -0.178008
  11 C     6.0000    0    12.011   -1.806155   -1.782858   -1.073400
  12 C     6.0000    0    12.011   -5.591322    1.443454    1.003730
  13 C     6.0000    0    12.011   -4.200823   -2.685779   -0.483492
  14 C     6.0000    0    12.011   -6.083015   -1.095060    0.544300
  15 C     6.0000    0    12.011    4.189733   -1.954544    1.105554
  16 H     1.0000    0     1.008    3.225044    0.107820   -3.482404
  17 H     1.0000    0     1.008    4.418253    3.155251   -2.854562
  18 H     1.0000    0     1.008    5.452767    1.827046    1.545169
  19 H     1.0000    0     1.008    1.415169    6.437431   -0.150808
  20 H     1.0000    0     1.008   -3.093162    6.291803    1.331745
  21 H     1.0000    0     1.008   -0.384705   -3.047769   -1.844713
  22 H     1.0000    0     1.008   -7.035331    2.668189    1.793955
  23 H     1.0000    0     1.008   -7.922148   -1.897020    0.968889
  24 H     1.0000    0     1.008    8.972410   -0.687303    0.118796
  25 H     1.0000    0     1.008    8.398693    1.505745   -1.947522
  26 H     1.0000    0     1.008   -3.449474   -6.075715   -1.578715
  27 H     1.0000    0     1.008    2.198490   -3.110107    3.834986

--------------------------------
INTERNAL COORDINATES (ANGSTROEM)
--------------------------------
 O      0   0   0     0.000000000000     0.00000000     0.00000000
 O      1   0   0     5.096013816378     0.00000000     0.00000000
 O      2   1   0     2.253227398123    72.60167266     0.00000000
 N      2   1   3     4.527239469224    69.62978929   123.20077218
 N      3   2   1     2.836334483610    87.40694702   135.07067229
 C      4   2   1     2.260847925552    42.67080307   273.99428130
 C      6   4   2     1.497987470859   161.25263040   254.02431649
 C      6   4   2     1.442687053157    71.42077996    71.22778031
 C      5   3   2     1.464656400485    59.15355044   330.49703854
 C      4   2   1     1.382250923559    65.79660123     6.58953450
 C      4   2   1     1.378076444153    61.44389491   235.92497881
 C      8   6   4     1.408838114440   133.65506487   180.03098385
 C     10   4   2     1.398280807979   130.70452628   135.34116900
 C      1   2   3     1.385045891468    50.38362595   236.88006809
 C     13  10   4     1.389721950832   117.96968830   180.09123062
 C      3   2   1     1.220774928145    30.21706525   119.21343162
 H      7   6   4     1.095907158349   110.67933705   212.88415738
 H      7   6   4     1.095833475967   109.74816676   330.92923161
 H      9   5   3     1.097817501709   114.12660734   134.81531490
 H     11   4   2     1.081174863367   120.43770082   226.59773775
 H      4   2   1     1.009357674757   140.83256757   123.86565891
 H     12   8   6     1.086482500810   121.27600000     0.75551023
 H     13  10   4     1.085728727507   121.19265190     0.06455958
 H     15  13  10     1.085242267726   120.64201748   179.96455817
 H      5   3   2     1.018889306475    92.07194474    81.05379986
 H      5   3   2     1.018573507436   160.91647398   282.80783229
 H      1   2   3     0.968828088116    73.42153113     9.56216282
 H      2   1   3     0.975115790545    56.42977531   269.64018352

---------------------------
INTERNAL COORDINATES (A.U.)
---------------------------
 O      0   0   0     0.000000000000     0.00000000     0.00000000
 O      1   0   0     9.630070487633     0.00000000     0.00000000
 O      2   1   0     4.257982699901    72.60167266     0.00000000
 N      2   1   3     8.555242739513    69.62978929   123.20077218
 N      3   2   1     5.359895398220    87.40694702   135.07067229
 C      4   2   1     4.272383409738    42.67080307   273.99428130
 C      6   4   2     2.830786071970   161.25263040   254.02431649
 C      6   4   2     2.726283427420    71.42077996    71.22778031
 C      5   3   2     2.767799477211    59.15355044   330.49703854
 C      4   2   1     2.612075693887    65.79660123     6.58953450
 C      4   2   1     2.604187071057    61.44389491   235.92497881
 C      8   6   4     2.662318203321   133.65506487   180.03098385
 C     10   4   2     2.642367785398   130.70452628   135.34116900
 C      1   2   3     2.617357417788    50.38362595   236.88006809
 C     13  10   4     2.626193889372   117.96968830   180.09123062
 C      3   2   1     2.306930285351    30.21706525   119.21343162
 H      7   6   4     2.070964397483   110.67933705   212.88415738
 H      7   6   4     2.070825157961   109.74816676   330.92923161
 H      9   5   3     2.074574423255   114.12660734   134.81531490
 H     11   4   2     2.043124394644   120.43770082   226.59773775
 H      4   2   1     1.907409576461   140.83256757   123.86565891
 H     12   8   6     2.053154375828   121.27600000     0.75551023
 H     13  10   4     2.051729950719   121.19265190     0.06455958
 H     15  13  10     2.050810674958   120.64201748   179.96455817
 H      5   3   2     1.925421750020    92.07194474    81.05379986
 H      5   3   2     1.924824976322   160.91647398   282.80783229
 H      1   2   3     1.830819757389    73.42153113     9.56216282
 H      2   1   3     1.842701792992    56.42977531   269.64018352

---------------------
BASIS SET INFORMATION
---------------------
There are 4 groups of distinct atoms

 Group   1 Type O   : 10s4p1d contracted to 3s2p1d pattern {631/31/1}
 Group   2 Type N   : 10s4p1d contracted to 3s2p1d pattern {631/31/1}
 Group   3 Type C   : 10s4p1d contracted to 3s2p1d pattern {631/31/1}
 Group   4 Type H   : 4s1p contracted to 2s1p pattern {31/1}

Atom   0O    basis set group =>   1
Atom   1O    basis set group =>   1
Atom   2O    basis set group =>   1
Atom   3N    basis set group =>   2
Atom   4N    basis set group =>   2
Atom   5C    basis set group =>   3
Atom   6C    basis set group =>   3
Atom   7C    basis set group =>   3
Atom   8C    basis set group =>   3
Atom   9C    basis set group =>   3
Atom  10C    basis set group =>   3
Atom  11C    basis set group =>   3
Atom  12C    basis set group =>   3
Atom  13C    basis set group =>   3
Atom  14C    basis set group =>   3
Atom  15C    basis set group =>   3
Atom  16H    basis set group =>   4
Atom  17H    basis set group =>   4
Atom  18H    basis set group =>   4
Atom  19H    basis set group =>   4
Atom  20H    basis set group =>   4
Atom  21H    basis set group =>   4
Atom  22H    basis set group =>   4
Atom  23H    basis set group =>   4
Atom  24H    basis set group =>   4
Atom  25H    basis set group =>   4
Atom  26H    basis set group =>   4
Atom  27H    basis set group =>   4
---------------------------------
AUXILIARY/J BASIS SET INFORMATION
---------------------------------
There are 4 groups of distinct atoms

 Group   1 Type O   : 12s5p4d2f1g contracted to 6s4p3d1f1g pattern {711111/2111/211/2/1}
 Group   2 Type N   : 12s5p4d2f1g contracted to 6s4p3d1f1g pattern {711111/2111/211/2/1}
 Group   3 Type C   : 12s5p4d2f1g contracted to 6s4p3d1f1g pattern {711111/2111/211/2/1}
 Group   4 Type H   : 5s2p1d contracted to 3s1p1d pattern {311/2/1}

Atom   0O    basis set group =>   1
Atom   1O    basis set group =>   1
Atom   2O    basis set group =>   1
Atom   3N    basis set group =>   2
Atom   4N    basis set group =>   2
Atom   5C    basis set group =>   3
Atom   6C    basis set group =>   3
Atom   7C    basis set group =>   3
Atom   8C    basis set group =>   3
Atom   9C    basis set group =>   3
Atom  10C    basis set group =>   3
Atom  11C    basis set group =>   3
Atom  12C    basis set group =>   3
Atom  13C    basis set group =>   3
Atom  14C    basis set group =>   3
Atom  15C    basis set group =>   3
Atom  16H    basis set group =>   4
Atom  17H    basis set group =>   4
Atom  18H    basis set group =>   4
Atom  19H    basis set group =>   4
Atom  20H    basis set group =>   4
Atom  21H    basis set group =>   4
Atom  22H    basis set group =>   4
Atom  23H    basis set group =>   4
Atom  24H    basis set group =>   4
Atom  25H    basis set group =>   4
Atom  26H    basis set group =>   4
Atom  27H    basis set group =>   4


           ************************************************************
           *        Program running with 2 parallel MPI-processes     *
           *              working on a common directory               *
           ************************************************************
------------------------------------------------------------------------------
                             ORCA STARTUP CALCULATIONS
                           -- RI-GTO INTEGRALS CHOSEN --
------------------------------------------------------------------------------
------------------------------------------------------------------------------
                   ___                                                        
                  /   \      - P O W E R E D   B Y -                         
                 /     \                                                     
                 |  |  |   _    _      __       _____    __    __             
                 |  |  |  | |  | |    /  \     |  _  \  |  |  /  |          
                  \  \/   | |  | |   /    \    | | | |  |  | /  /          
                 / \  \   | |__| |  /  /\  \   | |_| |  |  |/  /          
                |  |  |   |  __  | /  /__\  \  |    /   |      \           
                |  |  |   | |  | | |   __   |  |    \   |  |\   \          
                \     /   | |  | | |  |  |  |  | |\  \  |  | \   \       
                 \___/    |_|  |_| |__|  |__|  |_| \__\ |__|  \__/        
                                                                              
                      - O R C A' S   B I G   F R I E N D -                    
                                      &                                       
                       - I N T E G R A L  F E E D E R -                       
                                                                              
 v1 FN, 2020, v2 2021, v3 2022-2024                                           
------------------------------------------------------------------------------


----------------------
SHARK INTEGRAL PACKAGE
----------------------

Number of atoms                             ...     28
Number of basis functions                   ...    284
Number of shells                            ...    132
Maximum angular momentum                    ...      2
Integral batch strategy                     ... SHARK/LIBINT Hybrid
RI-J (if used) integral strategy            ... SPLIT-RIJ (Revised 2003 algorithm where possible)
Printlevel                                  ...      1
Contraction scheme used                     ... SEGMENTED contraction
Prescreening option                         ... SCHWARTZ
   Thresh                                   ... 2.500e-11
   Tcut                                     ... 2.500e-12
   Tpresel                                  ... 2.500e-12 
Coulomb Range Separation                    ... NOT USED
Exchange Range Separation                   ... NOT USED
Multipole approximations                    ... NOT USED
Finite Nucleus Model                        ... NOT USED
CABS basis                                  ... NOT available
Auxiliary Coulomb fitting basis             ... AVAILABLE
   # of basis functions in Aux-J            ...    916
   # of shells in Aux-J                     ...    300
   Maximum angular momentum in Aux-J        ...      4
Auxiliary J/K fitting basis                 ... NOT available
Auxiliary Correlation fitting basis         ... NOT available
Auxiliary 'external' fitting basis          ... NOT available

Checking pre-screening integrals            ... done (  0.0 sec) Dimension = 132
   => SHARK Basis and OBASIS are compatible. Storing Pre-screening
Shell pair information
Shell pair cut-off parameter TPreSel        ...   2.5e-12
Total number of shell pairs                 ...      8778
Shell pairs after pre-screening             ...      7045
Total number of primitive shell pairs       ...     45522
Primitive shell pairs kept                  ...     21961
          la=0 lb=0:   2091 shell pairs
          la=1 lb=0:   2566 shell pairs
          la=1 lb=1:    827 shell pairs
          la=2 lb=0:    892 shell pairs
          la=2 lb=1:    563 shell pairs
          la=2 lb=2:    106 shell pairs

Checking whether 4 symmetric matrices of dimension 284 fit in memory
:Max Core in MB      =   3000.00
 MB in use           =     12.97
 MB left             =   2987.03
 MB needed           =      1.24
 Data fit in memory  = YES
Calculating RI/J V-Matrix + Cholesky decomp.... done (  0.0 sec)
Calculating Nuclear repulsion               ... done (  0.0 sec) ENN=   1094.870217495871 Eh

Diagonalization of the overlap matrix:
Smallest eigenvalue                        ... 3.666e-04
Time for diagonalization                   ...    0.008 sec
Threshold for overlap eigenvalues          ... 1.000e-07
Number of eigenvalues below threshold      ... 0
Time for construction of square roots      ...    0.003 sec
Total time needed                          ...    0.013 sec

-------------------
DFT GRID GENERATION
-------------------

General Integration Accuracy     IntAcc      ... 4.388
Radial Grid Type                 RadialGrid  ... OptM3 with GC (2021)
Angular Grid (max. ang.)         AngularGrid ... 4 (Lebedev-302)
Angular grid pruning method      GridPruning ... 4 (adaptive)
Weight generation scheme         WeightScheme... mBecke (2022)
Basis function cutoff            BFCut       ... 1.0000e-11
Integration weight cutoff        WCut        ... 1.0000e-14
Partially contracted basis set               ... off
Rotationally invariant grid construction     ... off
Angular grids for H and He will be reduced by one unit

Total number of grid points                  ...   134230
Total number of batches                      ...     2114
Average number of points per batch           ...       63
Average number of grid points per atom       ...     4794

--------------------
COSX GRID GENERATION
--------------------

GRIDX 1
-------
General Integration Accuracy     IntAcc      ... 3.816
Radial Grid Type                 RadialGrid  ... OptM3 with GC (2021)
Angular Grid (max. ang.)         AngularGrid ... 1 (Lebedev-50)
Angular grid pruning method      GridPruning ... 4 (adaptive)
Weight generation scheme         WeightScheme... mBecke (2022)
Basis function cutoff            BFCut       ... 1.0000e-11
Integration weight cutoff        WCut        ... 1.0000e-14
Partially contracted basis set               ... on
Rotationally invariant grid construction     ... off
Angular grids for H and He will be reduced by one unit

Total number of grid points                  ...    17061
Total number of batches                      ...      148
Average number of points per batch           ...      115
Average number of grid points per atom       ...      609
UseSFitting                                  ... on

GRIDX 2
-------
General Integration Accuracy     IntAcc      ... 4.020
Radial Grid Type                 RadialGrid  ... OptM3 with GC (2021)
Angular Grid (max. ang.)         AngularGrid ... 2 (Lebedev-110)
Angular grid pruning method      GridPruning ... 4 (adaptive)
Weight generation scheme         WeightScheme... mBecke (2022)
Basis function cutoff            BFCut       ... 1.0000e-11
Integration weight cutoff        WCut        ... 1.0000e-14
Partially contracted basis set               ... on
Rotationally invariant grid construction     ... off
Angular grids for H and He will be reduced by one unit

Total number of grid points                  ...    37281
Total number of batches                      ...      306
Average number of points per batch           ...      121
Average number of grid points per atom       ...     1331
UseSFitting                                  ... on

GRIDX 3
-------
General Integration Accuracy     IntAcc      ... 4.338
Radial Grid Type                 RadialGrid  ... OptM3 with GC (2021)
Angular Grid (max. ang.)         AngularGrid ... 3 (Lebedev-194)
Angular grid pruning method      GridPruning ... 4 (adaptive)
Weight generation scheme         WeightScheme... mBecke (2022)
Basis function cutoff            BFCut       ... 1.0000e-11
Integration weight cutoff        WCut        ... 1.0000e-14
Partially contracted basis set               ... on
Rotationally invariant grid construction     ... off
Angular grids for H and He will be reduced by one unit

Total number of grid points                  ...    81637
Total number of batches                      ...      650
Average number of points per batch           ...      125
Average number of grid points per atom       ...     2916
UseSFitting                                  ... on
Grids setup in   2.8 sec
Initializing property integral containers    ... done (  0.0 sec)

SHARK setup successfully completed in   3.0 seconds

Maximum memory used throughout the entire STARTUP-calculation: 46.5 MB


           ************************************************************
           *        Program running with 2 parallel MPI-processes     *
           *              working on a common directory               *
           ************************************************************
-------------------------------------------------------------------------------
                                 ORCA GUESS
                   Start orbitals & Density for SCF / CASSCF
-------------------------------------------------------------------------------

------------
SCF SETTINGS
------------
Hamiltonian:
 Density Functional     Method          .... DFT(GTOs)
 Exchange Functional    Exchange        .... B88
   X-Alpha parameter    XAlpha          ....  0.666667
   Becke's b parameter  XBeta           ....  0.004200
 Correlation Functional Correlation     .... LYP
 LDA part of GGA corr.  LDAOpt          .... VWN-5
 Gradients option       PostSCFGGA      .... off
 Hybrid DFT is turned on
   Fraction HF Exchange ScalHFX         ....  0.200000
   Scaling of DF-GGA-X  ScalDFX         ....  0.720000
   Scaling of DF-GGA-C  ScalDFC         ....  0.810000
   Scaling of DF-LDA-C  ScalLDAC        ....  1.000000
   Perturbative correction              ....  0.000000
   NL short-range parameter             ....  4.800000
 RI-approximation to the Coulomb term is turned on
   Number of AuxJ basis functions       .... 916
   RIJ-COSX (HFX calculated with COS-X)).... on


General Settings:
 Integral files         IntName         .... /kaggle/working/Trp-OH-2/Trp-OH_InterFrag
 Hartree-Fock type      HFTyp           .... RHF
 Total Charge           Charge          ....    0
 Multiplicity           Mult            ....    1
 Number of Electrons    NEL             ....  116
 Basis Dimension        Dim             ....  284
 Nuclear Repulsion      ENuc            ....   1094.8702174959 Eh

Convergence Acceleration:
 AO-DIIS                CNVDIIS         .... on
   Start iteration      DIISMaxIt       ....    12
   Startup error        DIISStart       ....  0.200000
   # of expansion vecs  DIISMaxEq       ....     5
   Bias factor          DIISBfac        ....   1.050
   Max. coefficient     DIISMaxC        ....  10.000
 MO-DIIS                CNVKDIIS        .... off
 Trust-Rad. Augm. Hess. CNVTRAH         .... auto
   Auto Start mean grad. ratio tolernc. ....  1.125000
   Auto Start start iteration           ....    50
   Auto Start num. interpolation iter.  ....    10
   Max. Number of Micro iterations      ....    24
   Max. Number of Macro iterations      .... Maxiter - #DIIS iter
   Number of Davidson start vectors     ....     2
   Converg. threshold    (grad. norm)   ....   1.000e-05
   Grad. Scal. Fac. for Micro threshold ....   0.100
   Minimum threshold for Micro iter.    ....   1.000e-02
   NR start threshold (gradient norm)   ....   1.000e-04
   Initial trust radius                 ....   0.400
   Minimum AH scaling param. (alpha)    ....   1.000
   Maximum AH scaling param. (alpha)    .... 1000.000
   Quad. conv. algorithm                .... NR
   White noise on init. David. guess    .... on
   Maximum white noise                  ....   0.010
   Pseudo random numbers                .... off
   Inactive MOs                         .... canonical
   Orbital update algorithm             .... Taylor
   Preconditioner                       .... Diag
   Full preconditioner red. dimension   ....   250
 SOSCF                 CNVSOSCF           .... on
   Start iteration     SOSCFMaxIt         ....   150
   Startup grad/error  SOSCFStart         ....  0.003300
   Hessian update      SOSCFHessUp        .... L-BFGS
   Autom. constraints  SOSCFAutoConstrain .... off
 Level Shifting         CNVShift        .... on
   Level shift para.    LevelShift      ....    0.2500
   Turn off err/grad.   ShiftErr        ....    0.0010
 Zerner damping         CNVZerner       .... off
 Static damping         CNVDamp         .... on
   Fraction old density DampFac         ....    0.7000
   Max. Damping (<1)    DampMax         ....    0.9800
   Min. Damping (>=0)   DampMin         ....    0.0000
   Turn off err/grad.   DampErr         ....    0.1000

SCF Procedure:
 Maximum # iterations   MaxIter         ....   125
 SCF integral mode      SCFMode         .... Direct
   Integral package                     .... SHARK and LIBINT hybrid scheme
 Reset frequency        DirectResetFreq ....    20
 Integral Threshold     Thresh          ....  2.500e-11 Eh
 Primitive CutOff       TCut            ....  2.500e-12 Eh

Convergence Tolerance:
 Convergence Check Mode ConvCheckMode   .... Total+1el-Energy
 Convergence forced     ConvForced      .... 0
 Energy Change          TolE            ....  1.000e-08 Eh
 1-El. energy change                    ....  1.000e-05 Eh
 Orbital Gradient       TolG            ....  1.000e-05
 Orbital Rotation angle TolX            ....  1.000e-05
 DIIS Error             TolErr          ....  5.000e-07

------------------------------
INITIAL GUESS: MODEL POTENTIAL
------------------------------
Loading Hartree-Fock densities                     ... done
Calculating cut-offs                               ... done
Initializing the effective Hamiltonian             ... done
Setting up the integral package (SHARK)            ... done
Starting the Coulomb interaction                   ... done (   0.3 sec)
Making the grid                                    ... done (   0.4 sec)
Mapping shells                                     ... done
Starting the XC term evaluation                    ... done (   0.2 sec)
  promolecular density results
     # of electrons  =    115.995645017
     EX              =    -97.930519230
     EC              =     -3.991022190
     EX+EC           =   -101.921541420
Transforming the Hamiltonian                       ... done (   0.0 sec)
Diagonalizing the Hamiltonian                      ... done (   0.0 sec)
Back transforming the eigenvectors                 ... done (   0.0 sec)
Now organizing SCF variables                       ... done
                      ------------------
                      INITIAL GUESS DONE (   1.0 sec)
                      ------------------
             **** ENERGY FILE WAS UPDATED (/kaggle/working/Trp-OH-2/Trp-OH_InterFrag.en.tmp) ****
Finished Guess after   1.3 sec
Maximum memory used throughout the entire GUESS-calculation: 18.8 MB


           ************************************************************
           *        Program running with 2 parallel MPI-processes     *
           *              working on a common directory               *
           ************************************************************

-------------------------------------------------------------------------------------------
                                      ORCA LEAN-SCF
                              memory conserving SCF solver
-------------------------------------------------------------------------------------------

----------------------------------------D-I-I-S--------------------------------------------
Iteration    Energy (Eh)           Delta-E    RMSDP     MaxDP     DIISErr   Damp  Time(sec)
-------------------------------------------------------------------------------------------
               ***  Starting incremental Fock matrix formation  ***
    1    -760.6846070777455679     0.00e+00  3.82e-03  9.76e-02  2.68e-01  0.700   8.7
    2    -760.9032227686577698    -2.19e-01  2.59e-03  5.46e-02  1.13e-01  0.700   4.5
                               ***Turning on AO-DIIS***
    3    -760.9880266494092211    -8.48e-02  1.03e-03  1.70e-02  3.45e-02  0.700   4.2
    4    -761.0393008724336141    -5.13e-02  1.74e-03  2.41e-02  1.69e-02  0.000   4.0
    5    -761.1517649976178745    -1.12e-01  3.67e-04  8.29e-03  6.38e-03  0.000   4.2
                              *** Initializing SOSCF ***
---------------------------------------S-O-S-C-F--------------------------------------
Iteration    Energy (Eh)           Delta-E    RMSDP     MaxDP     MaxGrad    Time(sec)
--------------------------------------------------------------------------------------
    6    -761.1524457337211516    -6.81e-04  1.19e-04  2.41e-03  2.20e-03     3.8
               *** Restarting incremental Fock matrix formation ***
    7    -761.1525492726266293    -1.04e-04  8.06e-05  1.59e-03  3.89e-04     9.0
    8    -761.1525409259259050     8.35e-06  4.20e-05  1.22e-03  9.42e-04     6.1
    9    -761.1525553099506851    -1.44e-05  1.83e-05  3.24e-04  9.40e-05     5.5
   10    -761.1525550837195624     2.26e-07  9.22e-06  1.83e-04  9.82e-05     5.0
   11    -761.1525556816177414    -5.98e-07  4.78e-06  9.67e-05  2.65e-05     4.6
   12    -761.1525556586684615     2.29e-08  2.92e-06  6.39e-05  4.12e-05     4.2
   13    -761.1525557043075878    -4.56e-08  8.83e-07  2.10e-05  5.47e-06     3.9
   14    -761.1525556915248671     1.28e-08  5.80e-07  1.52e-05  9.26e-06     3.3
   15    -761.1525557043594290    -1.28e-08  1.37e-07  2.78e-06  5.80e-07     2.9
                  *** Gradient check signals convergence ***

               *****************************************************
               *                     SUCCESS                       *
               *           SCF CONVERGED AFTER  15 CYCLES          *
               *****************************************************

Recomputing exchange energy using gridx3       ... done (   14.672 sec)
Old exchange energy                            :    -19.868871418 Eh
New exchange energy                            :    -19.868873976 Eh
Exchange energy change after final integration :     -0.000002557 Eh
Total energy after final integration           :   -761.152558269 Eh
             **** ENERGY FILE WAS UPDATED (/kaggle/working/Trp-OH-2/Trp-OH_InterFrag.en.tmp) ****

----------------
TOTAL SCF ENERGY
----------------

Total Energy       :       -761.15255826871260 Eh          -20712.01409 eV

Components:
Nuclear Repulsion  :       1094.87021749587143 Eh           29792.93326 eV
Electronic Energy  :      -1856.02277320716212 Eh          -50504.94728 eV
One Electron Energy:      -3211.27235221306364 Eh          -87383.16318 eV
Two Electron Energy:       1355.24957900590152 Eh           36878.21590 eV

Virial components:
Potential Energy   :      -1517.62998368478111 Eh          -41296.81135 eV
Kinetic Energy     :        756.47742541606851 Eh           20584.79726 eV
Virial Ratio       :          2.00618013531610

DFT components:
N(Alpha)           :       58.000036369944 electrons
N(Beta)            :       58.000036369944 electrons
N(Total)           :      116.000072739889 electrons
E(X)               :      -78.961833257021 Eh       
E(C)               :       -4.700342893979 Eh       
E(XC)              :      -83.662176151001 Eh       

---------------
SCF CONVERGENCE
---------------

  Last Energy change         ...    1.2835e-08  Tolerance :   1.0000e-08
  Last MAX-Density change    ...    2.7837e-06  Tolerance :   1.0000e-07
  Last RMS-Density change    ...    1.3676e-07  Tolerance :   5.0000e-09
  Last DIIS Error            ...    2.2040e-03  Tolerance :   5.0000e-07
  Last Orbital Gradient      ...    5.7969e-07  Tolerance :   1.0000e-05
  Last Orbital Rotation      ...    1.7746e-06  Tolerance :   1.0000e-05


----------------
ORBITAL ENERGIES
----------------

  NO   OCC          E(Eh)            E(eV) 
   0   2.0000     -19.185299      -522.0585 
   1   2.0000     -19.154532      -521.2213 
   2   2.0000     -19.124253      -520.3974 
   3   2.0000     -14.369365      -391.0103 
   4   2.0000     -14.313570      -389.4920 
   5   2.0000     -10.304808      -280.4081 
   6   2.0000     -10.227382      -278.3012 
   7   2.0000     -10.219079      -278.0753 
   8   2.0000     -10.208705      -277.7930 
   9   2.0000     -10.203181      -277.6427 
  10   2.0000     -10.186909      -277.1999 
  11   2.0000     -10.180589      -277.0279 
  12   2.0000     -10.173356      -276.8311 
  13   2.0000     -10.170459      -276.7522 
  14   2.0000     -10.169496      -276.7260 
  15   2.0000     -10.168123      -276.6887 
  16   2.0000      -1.095529       -29.8109 
  17   2.0000      -1.033509       -28.1232 
  18   2.0000      -1.000123       -27.2147 
  19   2.0000      -0.970606       -26.4115 
  20   2.0000      -0.891360       -24.2551 
  21   2.0000      -0.827438       -22.5157 
  22   2.0000      -0.794361       -21.6157 
  23   2.0000      -0.741993       -20.1907 
  24   2.0000      -0.720060       -19.5938 
  25   2.0000      -0.709840       -19.3157 
  26   2.0000      -0.668651       -18.1949 
  27   2.0000      -0.624484       -16.9931 
  28   2.0000      -0.590220       -16.0607 
  29   2.0000      -0.579557       -15.7705 
  30   2.0000      -0.549045       -14.9403 
  31   2.0000      -0.539622       -14.6839 
  32   2.0000      -0.514695       -14.0056 
  33   2.0000      -0.504265       -13.7217 
  34   2.0000      -0.479591       -13.0503 
  35   2.0000      -0.473941       -12.8966 
  36   2.0000      -0.463116       -12.6020 
  37   2.0000      -0.454052       -12.3554 
  38   2.0000      -0.432484       -11.7685 
  39   2.0000      -0.429147       -11.6777 
  40   2.0000      -0.422764       -11.5040 
  41   2.0000      -0.416209       -11.3256 
  42   2.0000      -0.411849       -11.2070 
  43   2.0000      -0.391205       -10.6452 
  44   2.0000      -0.384404       -10.4602 
  45   2.0000      -0.378231       -10.2922 
  46   2.0000      -0.376815       -10.2537 
  47   2.0000      -0.362938        -9.8760 
  48   2.0000      -0.357998        -9.7416 
  49   2.0000      -0.349309        -9.5052 
  50   2.0000      -0.324566        -8.8319 
  51   2.0000      -0.306404        -8.3377 
  52   2.0000      -0.295800        -8.0491 
  53   2.0000      -0.264400        -7.1947 
  54   2.0000      -0.261842        -7.1251 
  55   2.0000      -0.242408        -6.5963 
  56   2.0000      -0.199062        -5.4167 
  57   2.0000      -0.189963        -5.1692 
  58   0.0000      -0.004468        -0.1216 
  59   0.0000       0.011066         0.3011 
  60   0.0000       0.045745         1.2448 
  61   0.0000       0.066026         1.7967 
  62   0.0000       0.078600         2.1388 
  63   0.0000       0.082276         2.2388 
  64   0.0000       0.088105         2.3975 
  65   0.0000       0.093347         2.5401 
  66   0.0000       0.117818         3.2060 
  67   0.0000       0.131387         3.5752 
  68   0.0000       0.145337         3.9548 
  69   0.0000       0.149686         4.0732 
  70   0.0000       0.165991         4.5168 
  71   0.0000       0.172558         4.6955 
  72   0.0000       0.184686         5.0256 
  73   0.0000       0.189638         5.1603 
  74   0.0000       0.190068         5.1720 
  75   0.0000       0.213553         5.8111 
  76   0.0000       0.246519         6.7081 
  77   0.0000       0.254375         6.9219 
  78   0.0000       0.260715         7.0944 
  79   0.0000       0.263569         7.1721 
  80   0.0000       0.275080         7.4853 
  81   0.0000       0.281505         7.6601 
  82   0.0000       0.294367         8.0101 
  83   0.0000       0.330022         8.9804 
  84   0.0000       0.347838         9.4652 
  85   0.0000       0.355433         9.6718 
  86   0.0000       0.377285        10.2664 
  87   0.0000       0.385836        10.4991 
  88   0.0000       0.416998        11.3471 
  89   0.0000       0.457509        12.4495 
  90   0.0000       0.497509        13.5379 
  91   0.0000       0.503449        13.6995 
  92   0.0000       0.517620        14.0852 
  93   0.0000       0.528997        14.3947 
  94   0.0000       0.539394        14.6776 
  95   0.0000       0.549479        14.9521 
  96   0.0000       0.552628        15.0378 
  97   0.0000       0.563894        15.3443 
  98   0.0000       0.578040        15.7293 
  99   0.0000       0.586335        15.9550 
 100   0.0000       0.600409        16.3380 
 101   0.0000       0.610646        16.6165 
 102   0.0000       0.610864        16.6224 
 103   0.0000       0.618692        16.8355 
 104   0.0000       0.628451        17.1010 
 105   0.0000       0.634027        17.2528 
 106   0.0000       0.641797        17.4642 
 107   0.0000       0.649404        17.6712 
 108   0.0000       0.655695        17.8424 
 109   0.0000       0.662371        18.0240 
 110   0.0000       0.681110        18.5339 
 111   0.0000       0.690092        18.7784 
 112   0.0000       0.701907        19.0999 
 113   0.0000       0.730483        19.8774 
 114   0.0000       0.741054        20.1651 
 115   0.0000       0.747538        20.3415 
 116   0.0000       0.752666        20.4811 
 117   0.0000       0.775454        21.1012 
 118   0.0000       0.791709        21.5435 
 119   0.0000       0.794377        21.6161 
 120   0.0000       0.805973        21.9316 
 121   0.0000       0.813583        22.1387 
 122   0.0000       0.816517        22.2186 
 123   0.0000       0.826024        22.4773 
 124   0.0000       0.834188        22.6994 
 125   0.0000       0.845517        23.0077 
 126   0.0000       0.865557        23.5530 
 127   0.0000       0.867600        23.6086 
 128   0.0000       0.877097        23.8670 
 129   0.0000       0.884357        24.0646 
 130   0.0000       0.890748        24.2385 
 131   0.0000       0.908862        24.7314 
 132   0.0000       0.910523        24.7766 
 133   0.0000       0.937881        25.5210 
 134   0.0000       0.945385        25.7252 
 135   0.0000       0.955888        26.0110 
 136   0.0000       0.969295        26.3758 
 137   0.0000       0.974672        26.5222 
 138   0.0000       0.982933        26.7470 
 139   0.0000       0.994916        27.0730 
 140   0.0000       1.014155        27.5966 
 141   0.0000       1.016232        27.6531 
 142   0.0000       1.041306        28.3354 
 143   0.0000       1.067522        29.0488 
 144   0.0000       1.072996        29.1977 
 145   0.0000       1.098914        29.9030 
 146   0.0000       1.104077        30.0435 
 147   0.0000       1.106533        30.1103 
 148   0.0000       1.136676        30.9305 
 149   0.0000       1.143130        31.1061 
 150   0.0000       1.159029        31.5388 
 151   0.0000       1.185333        32.2546 
 152   0.0000       1.218558        33.1586 
 153   0.0000       1.228372        33.4257 
 154   0.0000       1.245641        33.8956 
 155   0.0000       1.286191        34.9990 
 156   0.0000       1.301948        35.4278 
 157   0.0000       1.316022        35.8108 
 158   0.0000       1.332558        36.2608 
 159   0.0000       1.334420        36.3114 
 160   0.0000       1.365832        37.1662 
 161   0.0000       1.374896        37.4128 
 162   0.0000       1.385308        37.6962 
 163   0.0000       1.391833        37.8737 
 164   0.0000       1.409314        38.3494 
 165   0.0000       1.417434        38.5703 
 166   0.0000       1.434122        39.0244 
 167   0.0000       1.442489        39.2521 
 168   0.0000       1.463738        39.8303 
 169   0.0000       1.471828        40.0505 
 170   0.0000       1.495522        40.6952 
 171   0.0000       1.522642        41.4332 
 172   0.0000       1.565742        42.6060 
 173   0.0000       1.598715        43.5032 
 174   0.0000       1.608192        43.7611 
 175   0.0000       1.616725        43.9933 
 176   0.0000       1.638739        44.5924 
 177   0.0000       1.694665        46.1142 
 178   0.0000       1.720974        46.8301 
 179   0.0000       1.726815        46.9890 
 180   0.0000       1.751987        47.6740 
 181   0.0000       1.768975        48.1363 
 182   0.0000       1.779677        48.4275 
 183   0.0000       1.787311        48.6352 
 184   0.0000       1.803473        49.0750 
 185   0.0000       1.817701        49.4622 
 186   0.0000       1.834206        49.9113 
 187   0.0000       1.854762        50.4707 
 188   0.0000       1.859024        50.5866 
 189   0.0000       1.872230        50.9460 
 190   0.0000       1.884436        51.2781 
 191   0.0000       1.889692        51.4211 
 192   0.0000       1.892174        51.4887 
 193   0.0000       1.914808        52.1046 
 194   0.0000       1.917032        52.1651 
 195   0.0000       1.928388        52.4741 
 196   0.0000       1.945746        52.9464 
 197   0.0000       1.947648        52.9982 
 198   0.0000       1.974386        53.7258 
 199   0.0000       1.986569        54.0573 
 200   0.0000       1.993236        54.2387 
 201   0.0000       2.000963        54.4490 
 202   0.0000       2.026205        55.1358 
 203   0.0000       2.036129        55.4059 
 204   0.0000       2.058922        56.0261 
 205   0.0000       2.064125        56.1677 
 206   0.0000       2.100230        57.1502 
 207   0.0000       2.111686        57.4619 
 208   0.0000       2.132061        58.0163 
 209   0.0000       2.137920        58.1758 
 210   0.0000       2.170871        59.0724 
 211   0.0000       2.195248        59.7357 
 212   0.0000       2.208233        60.0891 
 213   0.0000       2.227221        60.6058 
 214   0.0000       2.235092        60.8199 
 215   0.0000       2.255404        61.3727 
 216   0.0000       2.269380        61.7530 
 217   0.0000       2.283765        62.1444 
 218   0.0000       2.289119        62.2901 
 219   0.0000       2.308284        62.8116 
 220   0.0000       2.319093        63.1057 
 221   0.0000       2.332267        63.4642 
 222   0.0000       2.344823        63.8059 
 223   0.0000       2.368732        64.4565 
 224   0.0000       2.376535        64.6688 
 225   0.0000       2.390367        65.0452 
 226   0.0000       2.409572        65.5678 
 227   0.0000       2.415479        65.7285 
 228   0.0000       2.425843        66.0106 
 229   0.0000       2.428091        66.0717 
 230   0.0000       2.452646        66.7399 
 231   0.0000       2.472023        67.2672 
 232   0.0000       2.475147        67.3522 
 233   0.0000       2.505749        68.1849 
 234   0.0000       2.530715        68.8642 
 235   0.0000       2.533373        68.9366 
 236   0.0000       2.544478        69.2388 
 237   0.0000       2.559090        69.6364 
 238   0.0000       2.573818        70.0371 
 239   0.0000       2.577249        70.1305 
 240   0.0000       2.590264        70.4847 
 241   0.0000       2.598280        70.7028 
 242   0.0000       2.611634        71.0662 
 243   0.0000       2.625842        71.4528 
 244   0.0000       2.649606        72.0994 
 245   0.0000       2.666207        72.5512 
 246   0.0000       2.676959        72.8438 
 247   0.0000       2.704019        73.5801 
 248   0.0000       2.720310        74.0234 
 249   0.0000       2.727347        74.2149 
 250   0.0000       2.731621        74.3312 
 251   0.0000       2.750838        74.8541 
 252   0.0000       2.779261        75.6275 
 253   0.0000       2.787261        75.8452 
 254   0.0000       2.801452        76.2314 
 255   0.0000       2.811927        76.5164 
 256   0.0000       2.838960        77.2520 
 257   0.0000       2.850699        77.5715 
 258   0.0000       2.880260        78.3758 
 259   0.0000       2.883904        78.4750 
 260   0.0000       2.902821        78.9898 
 261   0.0000       2.936732        79.9126 
 262   0.0000       2.955907        80.4343 
 263   0.0000       2.979868        81.0863 
 264   0.0000       3.019756        82.1717 
 265   0.0000       3.048657        82.9582 
 266   0.0000       3.092701        84.1567 
 267   0.0000       3.110595        84.6436 
 268   0.0000       3.170599        86.2764 
 269   0.0000       3.187007        86.7229 
 270   0.0000       3.232646        87.9648 
 271   0.0000       3.285283        89.3971 
 272   0.0000       3.304685        89.9250 
 273   0.0000       3.329473        90.5996 
 274   0.0000       3.353485        91.2530 
 275   0.0000       3.400534        92.5332 
 276   0.0000       3.435769        93.4920 
 277   0.0000       3.457741        94.0899 
 278   0.0000       3.491939        95.0205 
 279   0.0000       3.505653        95.3937 
 280   0.0000       3.514235        95.6272 
 281   0.0000       3.545048        96.4657 
 282   0.0000       3.768555       102.5476 
 283   0.0000       3.826464       104.1234 

                    ********************************
                    * MULLIKEN POPULATION ANALYSIS *
                    ********************************

-----------------------
MULLIKEN ATOMIC CHARGES
-----------------------
   0 O :   -0.550589
   1 O :   -0.465149
   2 O :   -0.437341
   3 N :   -0.554319
   4 N :   -0.554347
   5 C :    0.034065
   6 C :   -0.243362
   7 C :    0.061857
   8 C :    0.002588
   9 C :    0.240720
  10 C :    0.035561
  11 C :   -0.228680
  12 C :   -0.100864
  13 C :    0.303259
  14 C :   -0.125794
  15 C :    0.533545
  16 H :    0.132044
  17 H :    0.093532
  18 H :    0.093574
  19 H :    0.097592
  20 H :    0.259034
  21 H :    0.096499
  22 H :    0.077441
  23 H :    0.089197
  24 H :    0.236811
  25 H :    0.232211
  26 H :    0.316896
  27 H :    0.324021
Sum of atomic charges:   -0.0000000

--------------------------------
MULLIKEN REDUCED ORBITAL CHARGES
--------------------------------
  0 O s       :     3.848016  s :     3.848016
      pz      :     1.779090  p :     4.678682
      px      :     1.578831
      py      :     1.320762
      dz2     :     0.002834  d :     0.023891
      dxz     :     0.003855
      dyz     :     0.003530
      dx2y2   :     0.006028
      dxy     :     0.007644

  1 O s       :     3.824581  s :     3.824581
      pz      :     1.461788  p :     4.617123
      px      :     1.605749
      py      :     1.549586
      dz2     :     0.006730  d :     0.023446
      dxz     :     0.003914
      dyz     :     0.004701
      dx2y2   :     0.003610
      dxy     :     0.004491

  2 O s       :     3.863229  s :     3.863229
      pz      :     1.616241  p :     4.546481
      px      :     1.517054
      py      :     1.413185
      dz2     :     0.004217  d :     0.027631
      dxz     :     0.001916
      dyz     :     0.007743
      dx2y2   :     0.006089
      dxy     :     0.007665

  3 N s       :     3.596075  s :     3.596075
      pz      :     1.548049  p :     3.922200
      px      :     1.191132
      py      :     1.183019
      dz2     :     0.003382  d :     0.036044
      dxz     :     0.006787
      dyz     :     0.006052
      dx2y2   :     0.009464
      dxy     :     0.010360

  4 N s       :     3.629924  s :     3.629924
      pz      :     1.410962  p :     3.893575
      px      :     1.080052
      py      :     1.402560
      dz2     :     0.004288  d :     0.030848
      dxz     :     0.011108
      dyz     :     0.003093
      dx2y2   :     0.006395
      dxy     :     0.005964

  5 C s       :     3.124670  s :     3.124670
      pz      :     1.020590  p :     2.800768
      px      :     0.886482
      py      :     0.893696
      dz2     :     0.004185  d :     0.040497
      dxz     :     0.005984
      dyz     :     0.007376
      dx2y2   :     0.011255
      dxy     :     0.011696

  6 C s       :     3.238761  s :     3.238761
      pz      :     0.979387  p :     2.966044
      px      :     0.956773
      py      :     1.029884
      dz2     :     0.004284  d :     0.038557
      dxz     :     0.009368
      dyz     :     0.010497
      dx2y2   :     0.006782
      dxy     :     0.007626

  7 C s       :     3.142040  s :     3.142040
      pz      :     0.989506  p :     2.753723
      px      :     0.895602
      py      :     0.868616
      dz2     :     0.004463  d :     0.042379
      dxz     :     0.006161
      dyz     :     0.008323
      dx2y2   :     0.009672
      dxy     :     0.013760

  8 C s       :     3.176078  s :     3.176078
      pz      :     0.959439  p :     2.764231
      px      :     0.849099
      py      :     0.955693
      dz2     :     0.007217  d :     0.057103
      dxz     :     0.012522
      dyz     :     0.014751
      dx2y2   :     0.012019
      dxy     :     0.010595

  9 C s       :     3.057999  s :     3.057999
      pz      :     1.017395  p :     2.644226
      px      :     0.869509
      py      :     0.757322
      dz2     :     0.005830  d :     0.057055
      dxz     :     0.007992
      dyz     :     0.010754
      dx2y2   :     0.015702
      dxy     :     0.016777

 10 C s       :     3.094740  s :     3.094740
      pz      :     1.026576  p :     2.818532
      px      :     0.788685
      py      :     1.003271
      dz2     :     0.007362  d :     0.051167
      dxz     :     0.009583
      dyz     :     0.005256
      dx2y2   :     0.016036
      dxy     :     0.012930

 11 C s       :     3.147683  s :     3.147683
      pz      :     1.075148  p :     3.047666
      px      :     0.928989
      py      :     1.043529
      dz2     :     0.002837  d :     0.033332
      dxz     :     0.004962
      dyz     :     0.005746
      dx2y2   :     0.009172
      dxy     :     0.010615

 12 C s       :     3.147809  s :     3.147809
      pz      :     1.018905  p :     2.917712
      px      :     0.946212
      py      :     0.952595
      dz2     :     0.002802  d :     0.035343
      dxz     :     0.005324
      dyz     :     0.006558
      dx2y2   :     0.009407
      dxy     :     0.011251

 13 C s       :     3.090943  s :     3.090943
      pz      :     0.966616  p :     2.537503
      px      :     0.898486
      py      :     0.672401
      dz2     :     0.006777  d :     0.068295
      dxz     :     0.008150
      dyz     :     0.014021
      dx2y2   :     0.020041
      dxy     :     0.019307

 14 C s       :     3.181104  s :     3.181104
      pz      :     1.032035  p :     2.911802
      px      :     0.942192
      py      :     0.937575
      dz2     :     0.003823  d :     0.032888
      dxz     :     0.003364
      dyz     :     0.006247
      dx2y2   :     0.008377
      dxy     :     0.011078

 15 C s       :     2.988371  s :     2.988371
      pz      :     0.723807  p :     2.355694
      px      :     0.768857
      py      :     0.863030
      dz2     :     0.032255  d :     0.122390
      dxz     :     0.017878
      dyz     :     0.030556
      dx2y2   :     0.019105
      dxy     :     0.022595

 16 H s       :     0.856618  s :     0.856618
      pz      :     0.004697  p :     0.011338
      px      :     0.002067
      py      :     0.004574

 17 H s       :     0.894868  s :     0.894868
      pz      :     0.003332  p :     0.011600
      px      :     0.003147
      py      :     0.005121

 18 H s       :     0.895568  s :     0.895568
      pz      :     0.004948  p :     0.010858
      px      :     0.001647
      py      :     0.004263

 19 H s       :     0.889825  s :     0.889825
      pz      :     0.003002  p :     0.012583
      px      :     0.003674
      py      :     0.005907

 20 H s       :     0.716016  s :     0.716016
      pz      :     0.008402  p :     0.024950
      px      :     0.006294
      py      :     0.010254

 21 H s       :     0.890841  s :     0.890841
      pz      :     0.003769  p :     0.012660
      px      :     0.004998
      py      :     0.003893

 22 H s       :     0.910146  s :     0.910146
      pz      :     0.003645  p :     0.012413
      px      :     0.004932
      py      :     0.003835

 23 H s       :     0.898354  s :     0.898354
      pz      :     0.003028  p :     0.012449
      px      :     0.006582
      py      :     0.002838

 24 H s       :     0.739441  s :     0.739441
      pz      :     0.008732  p :     0.023748
      px      :     0.007695
      py      :     0.007322

 25 H s       :     0.743944  s :     0.743944
      pz      :     0.008031  p :     0.023845
      px      :     0.005308
      py      :     0.010506

 26 H s       :     0.644682  s :     0.644682
      pz      :     0.011803  p :     0.038422
      px      :     0.016223
      py      :     0.010396

 27 H s       :     0.638476  s :     0.638476
      pz      :     0.008284  p :     0.037502
      px      :     0.011013
      py      :     0.018205


------------------------
MULLIKEN OVERLAP CHARGES
------------------------
B(  0-O , 11-C ) :  -0.1160 B(  0-O , 13-C ) :   0.5704 B(  0-O , 14-C ) :  -0.0917 
B(  0-O , 26-H ) :   0.6054 B(  1-O ,  2-O ) :  -0.1650 B(  1-O ,  8-C ) :  -0.1619 
B(  1-O , 15-C ) :   0.5706 B(  1-O , 27-H ) :   0.5477 B(  2-O ,  8-C ) :  -0.1669 
B(  2-O , 15-C ) :   1.2236 B(  3-N ,  5-C ) :  -0.1105 B(  3-N ,  7-C ) :  -0.1047 
B(  3-N ,  9-C ) :   0.5897 B(  3-N , 10-C ) :   0.6804 B(  3-N , 12-C ) :  -0.1730 
B(  3-N , 19-H ) :  -0.0914 B(  3-N , 20-H ) :   0.7105 B(  4-N ,  6-C ) :  -0.0847 
B(  4-N ,  8-C ) :   0.5871 B(  4-N , 15-C ) :  -0.0877 B(  4-N , 18-H ) :  -0.0926 
B(  4-N , 24-H ) :   0.6651 B(  4-N , 25-H ) :   0.6628 B(  5-C ,  6-C ) :   0.6481 
B(  5-C ,  7-C ) :   0.8297 B(  5-C ,  8-C ) :  -0.0741 B(  5-C , 10-C ) :   0.9823 
B(  5-C , 11-C ) :  -0.1981 B(  5-C , 17-H ) :  -0.0535 B(  5-C , 19-H ) :  -0.0609 
B(  6-C ,  7-C ) :  -0.1074 B(  6-C ,  8-C ) :   0.6538 B(  6-C , 10-C ) :  -0.1725 
B(  6-C , 16-H ) :   0.7228 B(  6-C , 17-H ) :   0.7374 B(  6-C , 18-H ) :  -0.1010 
B(  7-C ,  9-C ) :   0.9097 B(  7-C , 11-C ) :   0.7879 B(  7-C , 12-C ) :  -0.0846 
B(  7-C , 14-C ) :  -0.0660 B(  7-C , 21-H ) :  -0.0545 B(  8-C , 15-C ) :   0.5509 
B(  8-C , 16-H ) :  -0.0834 B(  8-C , 17-H ) :  -0.0804 B(  8-C , 18-H ) :   0.7449 
B(  8-C , 24-H ) :  -0.0669 B(  8-C , 25-H ) :  -0.0675 B(  9-C , 10-C ) :  -0.2800 
B(  9-C , 11-C ) :  -0.1551 B(  9-C , 12-C ) :   0.9604 B(  9-C , 13-C ) :  -0.0792 
B(  9-C , 20-H ) :  -0.0579 B(  9-C , 22-H ) :  -0.0744 B( 10-C , 19-H ) :   0.7429 
B( 10-C , 20-H ) :  -0.0636 B( 11-C , 12-C ) :  -0.1195 B( 11-C , 13-C ) :   0.9349 
B( 11-C , 14-C ) :  -0.1056 B( 11-C , 21-H ) :   0.6871 B( 12-C , 14-C ) :   1.0686 
B( 12-C , 22-H ) :   0.7102 B( 12-C , 23-H ) :  -0.0763 B( 13-C , 14-C ) :   1.0424 
B( 13-C , 21-H ) :  -0.0855 B( 13-C , 23-H ) :  -0.0668 B( 13-C , 26-H ) :  -0.0830 
B( 14-C , 22-H ) :  -0.0726 B( 14-C , 23-H ) :   0.7098 B( 15-C , 18-H ) :  -0.1107 
B( 16-H , 17-H ) :  -0.0647 B( 24-H , 25-H ) :  -0.0648 


                     *******************************
                     * LOEWDIN POPULATION ANALYSIS *
                     *******************************

----------------------
LOEWDIN ATOMIC CHARGES
----------------------
   0 O :   -0.196994
   1 O :   -0.146023
   2 O :   -0.238670
   3 N :   -0.033356
   4 N :   -0.255582
   5 C :   -0.079192
   6 C :   -0.105657
   7 C :   -0.026530
   8 C :   -0.039033
   9 C :    0.004325
  10 C :   -0.046023
  11 C :   -0.140395
  12 C :   -0.089901
  13 C :    0.068724
  14 C :   -0.100451
  15 C :    0.143496
  16 H :    0.086079
  17 H :    0.072365
  18 H :    0.058108
  19 H :    0.070966
  20 H :    0.150459
  21 H :    0.075633
  22 H :    0.071862
  23 H :    0.079409
  24 H :    0.127599
  25 H :    0.123921
  26 H :    0.177935
  27 H :    0.186926

-------------------------------
LOEWDIN REDUCED ORBITAL CHARGES
-------------------------------
  0 O s       :     3.477055  s :     3.477055
      pz      :     1.755363  p :     4.672804
      px      :     1.580936
      py      :     1.336505
      dz2     :     0.004691  d :     0.047135
      dxz     :     0.005373
      dyz     :     0.008512
      dx2y2   :     0.012384
      dxy     :     0.016175

  1 O s       :     3.475804  s :     3.475804
      pz      :     1.479759  p :     4.620703
      px      :     1.592105
      py      :     1.548839
      dz2     :     0.014208  d :     0.049516
      dxz     :     0.011385
      dyz     :     0.010043
      dx2y2   :     0.005754
      dxy     :     0.008126

  2 O s       :     3.562265  s :     3.562265
      pz      :     1.622174  p :     4.621191
      px      :     1.503579
      py      :     1.495437
      dz2     :     0.007717  d :     0.055214
      dxz     :     0.002866
      dyz     :     0.017575
      dx2y2   :     0.015909
      dxy     :     0.011146

  3 N s       :     3.063911  s :     3.063911
      pz      :     1.498234  p :     3.881489
      px      :     1.206495
      py      :     1.176760
      dz2     :     0.006012  d :     0.087955
      dxz     :     0.015568
      dyz     :     0.012483
      dx2y2   :     0.027508
      dxy     :     0.026384

  4 N s       :     3.218174  s :     3.218174
      pz      :     1.430602  p :     3.978574
      px      :     1.129615
      py      :     1.418357
      dz2     :     0.006306  d :     0.058834
      dxz     :     0.021573
      dyz     :     0.006107
      dx2y2   :     0.012900
      dxy     :     0.011948

  5 C s       :     2.865757  s :     2.865757
      pz      :     1.057373  p :     3.113145
      px      :     1.016348
      py      :     1.039424
      dz2     :     0.008533  d :     0.100290
      dxz     :     0.012404
      dyz     :     0.017304
      dx2y2   :     0.031066
      dxy     :     0.030983

  6 C s       :     2.889393  s :     2.889393
      pz      :     1.040314  p :     3.131915
      px      :     1.022524
      py      :     1.069077
      dz2     :     0.008687  d :     0.084350
      dxz     :     0.022536
      dyz     :     0.021556
      dx2y2   :     0.014994
      dxy     :     0.016577

  7 C s       :     2.859484  s :     2.859484
      pz      :     1.007220  p :     3.061050
      px      :     1.019520
      py      :     1.034309
      dz2     :     0.009305  d :     0.105997
      dxz     :     0.013706
      dyz     :     0.018596
      dx2y2   :     0.026261
      dxy     :     0.038128

  8 C s       :     2.884175  s :     2.884175
      pz      :     1.038660  p :     3.027752
      px      :     0.954914
      py      :     1.034178
      dz2     :     0.014485  d :     0.127105
      dxz     :     0.028815
      dyz     :     0.033458
      dx2y2   :     0.026497
      dxy     :     0.023850

  9 C s       :     2.841848  s :     2.841848
      pz      :     1.031009  p :     3.015916
      px      :     1.048877
      py      :     0.936030
      dz2     :     0.012679  d :     0.137911
      dxz     :     0.017352
      dyz     :     0.024130
      dx2y2   :     0.039504
      dxy     :     0.044246

 10 C s       :     2.886832  s :     2.886832
      pz      :     1.034889  p :     3.042561
      px      :     0.941177
      py      :     1.066496
      dz2     :     0.015202  d :     0.116630
      dxz     :     0.022012
      dyz     :     0.011144
      dx2y2   :     0.039049
      dxy     :     0.029223

 11 C s       :     2.892339  s :     2.892339
      pz      :     1.068333  p :     3.166749
      px      :     1.045414
      py      :     1.053002
      dz2     :     0.005948  d :     0.081307
      dxz     :     0.010221
      dyz     :     0.012345
      dx2y2   :     0.025011
      dxy     :     0.027783

 12 C s       :     2.888877  s :     2.888877
      pz      :     1.020612  p :     3.115566
      px      :     1.037598
      py      :     1.057357
      dz2     :     0.005736  d :     0.085458
      dxz     :     0.011201
      dyz     :     0.014286
      dx2y2   :     0.025548
      dxy     :     0.028687

 13 C s       :     2.855133  s :     2.855133
      pz      :     0.984374  p :     2.914443
      px      :     1.062182
      py      :     0.867886
      dz2     :     0.014878  d :     0.161700
      dxz     :     0.018129
      dyz     :     0.030605
      dx2y2   :     0.049640
      dxy     :     0.048448

 14 C s       :     2.895028  s :     2.895028
      pz      :     1.036247  p :     3.125543
      px      :     1.043980
      py      :     1.045315
      dz2     :     0.007573  d :     0.079881
      dxz     :     0.006949
      dyz     :     0.014693
      dx2y2   :     0.022659
      dxy     :     0.028006

 15 C s       :     2.855426  s :     2.855426
      pz      :     0.870188  p :     2.715183
      px      :     0.812955
      py      :     1.032039
      dz2     :     0.074824  d :     0.285895
      dxz     :     0.041251
      dyz     :     0.073984
      dx2y2   :     0.045580
      dxy     :     0.050256

 16 H s       :     0.874272  s :     0.874272
      pz      :     0.017256  p :     0.039649
      px      :     0.006535
      py      :     0.015858

 17 H s       :     0.889184  s :     0.889184
      pz      :     0.010368  p :     0.038451
      px      :     0.010235
      py      :     0.017849

 18 H s       :     0.901549  s :     0.901549
      pz      :     0.018289  p :     0.040343
      px      :     0.006089
      py      :     0.015965

 19 H s       :     0.886868  s :     0.886868
      pz      :     0.008853  p :     0.042166
      px      :     0.012571
      py      :     0.020742

 20 H s       :     0.768616  s :     0.768616
      pz      :     0.025089  p :     0.080925
      px      :     0.020557
      py      :     0.035279

 21 H s       :     0.881933  s :     0.881933
      pz      :     0.011918  p :     0.042434
      px      :     0.016990
      py      :     0.013526

 22 H s       :     0.887803  s :     0.887803
      pz      :     0.011032  p :     0.040335
      px      :     0.016529
      py      :     0.012774

 23 H s       :     0.879536  s :     0.879536
      pz      :     0.009235  p :     0.041055
      px      :     0.022942
      py      :     0.008879

 24 H s       :     0.795589  s :     0.795589
      pz      :     0.031154  p :     0.076813
      px      :     0.025285
      py      :     0.020373

 25 H s       :     0.798806  s :     0.798806
      pz      :     0.023358  p :     0.077273
      px      :     0.015264
      py      :     0.038650

 26 H s       :     0.706144  s :     0.706144
      pz      :     0.034873  p :     0.115922
      px      :     0.051704
      py      :     0.029345

 27 H s       :     0.699318  s :     0.699318
      pz      :     0.023714  p :     0.113756
      px      :     0.032142
      py      :     0.057901


---------------------------------
LOEWDIN BOND ORDERS (THRESH 0.050000)
---------------------------------
B(  0-O , 11-C ) :   0.1112 B(  0-O , 13-C ) :   1.2664 B(  0-O , 14-C ) :   0.0836 
B(  0-O , 26-H ) :   1.0158 B(  1-O ,  2-O ) :   0.2064 B(  1-O ,  8-C ) :   0.0656 
B(  1-O , 15-C ) :   1.3982 B(  1-O , 27-H ) :   0.9846 B(  2-O ,  8-C ) :   0.0849 
B(  2-O , 15-C ) :   2.2050 B(  3-N ,  5-C ) :   0.1514 B(  3-N ,  7-C ) :   0.1054 
B(  3-N ,  9-C ) :   1.2475 B(  3-N , 10-C ) :   1.2990 B(  3-N , 12-C ) :   0.0694 
B(  3-N , 20-H ) :   0.9442 B(  4-N ,  6-C ) :   0.0530 B(  4-N ,  8-C ) :   1.1423 
B(  4-N , 15-C ) :   0.0555 B(  4-N , 24-H ) :   0.9865 B(  4-N , 25-H ) :   0.9853 
B(  5-C ,  6-C ) :   1.0547 B(  5-C ,  7-C ) :   1.2107 B(  5-C ,  9-C ) :   0.0818 
B(  5-C , 10-C ) :   1.5768 B(  5-C , 11-C ) :   0.0605 B(  6-C ,  8-C ) :   0.9919 
B(  6-C , 10-C ) :   0.0633 B(  6-C , 15-C ) :   0.0533 B(  6-C , 16-H ) :   0.9211 
B(  6-C , 17-H ) :   0.9205 B(  7-C ,  9-C ) :   1.2523 B(  7-C , 10-C ) :   0.0901 
B(  7-C , 11-C ) :   1.3435 B(  7-C , 12-C ) :   0.0663 B(  7-C , 13-C ) :   0.0820 
B(  7-C , 14-C ) :   0.0794 B(  8-C , 15-C ) :   0.9832 B(  8-C , 18-H ) :   0.9039 
B(  9-C , 10-C ) :   0.1265 B(  9-C , 11-C ) :   0.0638 B(  9-C , 12-C ) :   1.3773 
B(  9-C , 13-C ) :   0.0688 B(  9-C , 14-C ) :   0.0850 B( 10-C , 19-H ) :   0.9340 
B( 11-C , 12-C ) :   0.1069 B( 11-C , 13-C ) :   1.4776 B( 11-C , 14-C ) :   0.0701 
B( 11-C , 21-H ) :   0.9129 B( 12-C , 13-C ) :   0.0739 B( 12-C , 14-C ) :   1.5325 
B( 12-C , 22-H ) :   0.9223 B( 13-C , 14-C ) :   1.3420 B( 14-C , 23-H ) :   0.9219 
B( 15-C , 27-H ) :   0.0569 

------------------------------------------
LOEWDIN REDUCED ORBITAL POPULATIONS PER MO
-------------------------------------------
THRESHOLD FOR PRINTING IS 0.1%%
                      0         1         2         3         4         5   
                 -19.18530 -19.15453 -19.12425 -14.36937 -14.31357 -10.30481
                   2.00000   2.00000   2.00000   2.00000   2.00000   2.00000
                  --------  --------  --------  --------  --------  --------
 0 O  s               0.0      99.9       0.0       0.0       0.0       0.0
 1 O  s              99.9       0.0       0.0       0.0       0.0       0.0
[...]
 17 H      0.9065     1.0000     0.0935     0.9566     0.9566    -0.0000
 18 H      0.9064     1.0000     0.0936     0.9522     0.9522    -0.0000
 19 H      0.9024     1.0000     0.0976     0.9602     0.9602    -0.0000
 20 H      0.7410     1.0000     0.2590     0.9241     0.9241     0.0000
 21 H      0.9035     1.0000     0.0965     0.9721     0.9721    -0.0000
 22 H      0.9226     1.0000     0.0774     0.9582     0.9582     0.0000
 23 H      0.9108     1.0000     0.0892     0.9627     0.9627     0.0000
 24 H      0.7632     1.0000     0.2368     0.9198     0.9198     0.0000
 25 H      0.7678     1.0000     0.2322     0.9232     0.9232    -0.0000
 26 H      0.6831     1.0000     0.3169     0.9005     0.9005     0.0000
 27 H      0.6760     1.0000     0.3240     0.9140     0.9140    -0.0000

  Mayer bond orders larger than 0.100000
B(  0-O , 13-C ) :   0.9434 B(  0-O , 26-H ) :   0.8767 B(  1-O , 15-C ) :   1.0873 
B(  1-O , 27-H ) :   0.8513 B(  2-O , 15-C ) :   1.9103 B(  3-N ,  9-C ) :   1.0027 
B(  3-N , 10-C ) :   1.0957 B(  3-N , 20-H ) :   0.8988 B(  4-N ,  8-C ) :   1.0019 
B(  4-N , 24-H ) :   0.9100 B(  4-N , 25-H ) :   0.9078 B(  5-C ,  6-C ) :   0.9953 
B(  5-C ,  7-C ) :   1.2721 B(  5-C , 10-C ) :   1.5488 B(  6-C ,  8-C ) :   0.9610 
B(  6-C , 16-H ) :   0.9337 B(  6-C , 17-H ) :   0.9430 B(  7-C ,  9-C ) :   1.2976 
B(  7-C , 11-C ) :   1.3260 B(  8-C , 15-C ) :   0.9186 B(  8-C , 18-H ) :   0.9311 
B(  9-C , 12-C ) :   1.3519 B( 10-C , 19-H ) :   0.9433 B( 11-C , 13-C ) :   1.4177 
B( 11-C , 21-H ) :   0.9155 B( 12-C , 14-C ) :   1.4834 B( 12-C , 22-H ) :   0.9358 
B( 13-C , 14-C ) :   1.3412 B( 14-C , 23-H ) :   0.9349 

-------
TIMINGS
-------

Total SCF time: 0 days 0 hours 1 min 31 sec 

Total time                  ....      91.573 sec
Sum of individual times     ....      89.268 sec  ( 97.5%)

SCF preparation             ....       0.402 sec  (  0.4%)
Fock matrix formation       ....      87.946 sec  ( 96.0%)
  Startup                   ....       0.008 sec  (  0.0% of F)
  Split-RI-J                ....       9.330 sec  ( 10.6% of F)
  Chain of spheres X        ....      68.370 sec  ( 77.7% of F)
  XC integration            ....      12.370 sec  ( 14.1% of F)
    XC Preparation          ....       0.000 sec  (  0.0% of XC)
    Basis function eval.    ....       4.790 sec  ( 38.7% of XC)
    Density eval.           ....       2.887 sec  ( 23.3% of XC)
    XC-Functional eval.     ....       0.610 sec  (  4.9% of XC)
    XC-Potential eval.      ....       3.431 sec  ( 27.7% of XC)
Diagonalization             ....       0.000 sec  (  0.0%)
Density matrix formation    ....       0.058 sec  (  0.1%)
Total Energy calculation    ....       0.027 sec  (  0.0%)
Population analysis         ....       0.395 sec  (  0.4%)
Orbital Transformation      ....       0.041 sec  (  0.0%)
Orbital Orthonormalization  ....       0.000 sec  (  0.0%)
DIIS solution               ....       0.195 sec  (  0.2%)
  MO trafo                  ....       0.000 sec  (  0.0 % of DIIS)
  Orb grad                  ....       0.000 sec  (  0.0 % of DIIS)
  Energy W gradient         ....       0.000 sec  (  0.0 % of DIIS)
  DIIS error                ....       0.042 sec  ( 21.7 % of DIIS)
  DIIS work                 ....       0.126 sec  ( 64.6 % of DIIS)
  Form Q                    ....       0.000 sec  (  0.0 % of DIIS)
  Form QpQm                 ....       0.000 sec  (  0.0 % of DIIS)
  Exp/Cayley                ....       0.000 sec  (  0.0 % of DIIS)
  Orb update                ....       0.000 sec  (  0.0 % of DIIS)
  Wake-sleep                ....       0.006 sec  (  3.3 % of DIIS)
SOSCF solution              ....       0.204 sec  (  0.2%)
  MO trafo                  ....       0.062 sec  ( 30.1 % of SOSCF)
  Orb grad                  ....       0.006 sec  (  2.9 % of SOSCF)
  Rot update                ....       0.026 sec  ( 12.9 % of SOSCF)
  Step                      ....       0.103 sec  ( 50.2 % of SOSCF)
Finished LeanSCF after  91.6 sec

Maximum memory used throughout the entire LEANSCF-calculation: 35.4 MB


-------------------------------------------------------------------------------
                          DFT DISPERSION CORRECTION                            
                                                                               
                              DFTD3 V3.1  Rev 1                                
                          USING Becke-Johnson damping                          
-------------------------------------------------------------------------------
The B3LYP functional is recognized
Active option DFTDOPT                   ...         4   

molecular C6(AA) [au] = 8445.452984 


            DFT-D V3
 parameters
 s6 scaling factor         :     1.0000 
 a1 scaling factor         :     0.3981 
 s8 scaling factor         :     1.9889 
 a2 scaling factor         :     4.4211 
 ad hoc parameters k1-k3   :    16.0000     1.3333    -4.0000 

 Edisp/kcal,au: -36.034560813577  -0.057424721792 
 E6   /kcal   : -17.054675420 
 E8   /kcal   : -18.979885393 
 % E8         :  52.671338195 

-------------------------   ----------------
Dispersion correction           -0.057424722
-------------------------   ----------------


-------------------------   --------------------
FINAL SINGLE POINT ENERGY      -761.209982990504
-------------------------   --------------------



           ************************************************************
           *        Program running with 2 parallel MPI-processes     *
           *              working on a common directory               *
           ************************************************************
------------------------------------------------------------------------------
                            ORCA SCF RESPONSE CALCULATION
------------------------------------------------------------------------------

GBWName                                 ... /kaggle/working/Trp-OH-2/Trp-OH_InterFrag.gbw
Number of atoms                         ...     28
Number of basis functions               ...    284
Max core memory                         ...   3000 MB

Electric field perturbation             ... YES
Quadrupolar field perturbation          ...  NO
Magnetic field perturbation (no GIAO)   ...  NO
Magnetic field perturbation (with GIAO) ...  NO
Linear momentum (velocity) perturbation ...  NO
Spin-orbit coupling perturbation        ...  NO
Choice of electric origin               ... Center of mass
Position of electric origin             ...     0.148040    -0.120406     0.016896
Choice of magnetic origin               ... GIAO
Position of magnetic origin             ...     0.000000     0.000000     0.000000
Nuclear geometric perturbations         ...  NO (  84 perturbations)
Nucleus-orbit perturbations             ...  NO (   0 perturbations)
Spin-dipole/Fermi contact perturbations ...  NO (   0 perturbations)

Total number of real perturbations      ...      3
Total number of imaginary perturbations ...      0
Total number of triplet perturbations   ...      0
Total number of SOC perturbations       ...      0

Using XC Grid                  ... (/kaggle/working/Trp-OH-2/Trp-OH_InterFrag.grid_cpscf.tmp) 
Recalculating density on grid  ... (/kaggle/working/Trp-OH-2/Trp-OH_InterFrag.grho_cpscf0.tmp) done
Calculating the xc-kernel      ... (/kaggle/working/Trp-OH-2/Trp-OH_InterFrag.fxc_cpscf0.tmp) done

                                **********************
                                * REAL PERTURBATIONS *
                                **********************



-------------------
SHARK CP-SCF DRIVER
-------------------

Dimension of the orbital basis          ...    284
Dimension of the CPSCF-problem          ...  13108
Number of operators                     ...      1
Max. number of iterations               ...    128
Convergence Tolerance                   ... 1.0e-04
Number of perturbations                 ...      3
Perturbation type                       ... REAL

----------------------------
POPLE LINEAR EQUATION SOLVER
----------------------------

  ITERATION   0:   ||err||_max =   2.8500e+01 (   3.7 sec   0/  3 done)
  ITERATION   1:   ||err||_max =   1.3640e+00 (   3.3 sec   0/  3 done)
  ITERATION   2:   ||err||_max =   5.2789e-01 (   3.6 sec   0/  3 done)
  ITERATION   3:   ||err||_max =   1.4295e-01 (   3.4 sec   0/  3 done)
  ITERATION   4:   ||err||_max =   5.5092e-02 (   3.4 sec   0/  3 done)
  ITERATION   5:   ||err||_max =   1.9053e-02 (   3.5 sec   0/  3 done)
  ITERATION   6:   ||err||_max =   7.7467e-03 (   3.4 sec   0/  3 done)
  ITERATION   7:   ||err||_max =   2.8661e-03 (   3.4 sec   0/  3 done)
  ITERATION   8:   ||err||_max =   1.0357e-03 (   3.4 sec   0/  3 done)
  ITERATION   9:   ||err||_max =   3.2937e-04 (   3.4 sec   0/  3 done)
  ITERATION  10:   ||err||_max =   1.1917e-04 (   3.4 sec   2/  3 done)
  ITERATION  11:   ||err||_max =   3.5125e-05 (   2.6 sec   3/  3 done)

CP-SCF equations solved in  40.5 sec
Response densities calculated in   0.0 sec

Maximum memory used throughout the entire SCFRESP-calculation: 40.5 MB


           ************************************************************
           *        Program running with 2 parallel MPI-processes     *
           *              working on a common directory               *
           ************************************************************

------------------------------------------------------------------------------
                              ORCA PROPERTY CALCULATIONS
------------------------------------------------------------------------------

GBWName                                 ... /kaggle/working/Trp-OH-2/Trp-OH_InterFrag.gbw
Number of atoms                         ...     28
Number of basis functions               ...    284
Max core memory                         ...   3000 MB

Electric properties:
Dipole moment                           ... YES
Quadrupole moment                       ...  NO
Static polarizability (Dipole/Dipole)   ... YES
Static polarizability (Dipole/Quad.)    ...  NO
Static polarizability (Quad./Quad.)     ...  NO
Static polarizability (Velocity)        ...  NO
Static hyperpolarizability              ...  NO

Atomic electric properties:
Dipole moment                           ...  NO
Quadrupole moment                       ...  NO
Static polarizability                   ...  NO

Choice of electric origin               ... Center of mass
Position of electric origin             ...     0.148040    -0.120406     0.016896

General magnetic properties:
Magnetizability                         ...  NO

EPR properties:
g-Tensor (aka g-matrix)                 ...  NO
Zero-Field splitting spin-orbit         ...  NO
Zero-field splitting spin-spin          ...  NO
Hyperfine couplings                     ...  NO (   0 nuclei)
Quadrupole couplings                    ...  NO (   0 nuclei)
Contact density                         ...  NO (   0 nuclei)

NMR properties:
Chemical shifts                         ...  NO (   0 nuclei)
Spin-rotation constants                 ...  NO (   0 nuclei)
Spin-spin couplings                     ...  NO (   0 nuclei,    0 pairs)

Choice of magnetic origin               ... GIAO
Position of magnetic origin             ...     0.000000     0.000000     0.000000

Properties with geometric perturbations:
SCF Hessian                             ...  NO
IR spectrum                             ...  NO
VCD spectrum                            ...  NO
X-ray spectroscopy properties:
SCF XES/XAS/RIXS spectra                ...  NO

SCF SOC stabilization energy            ...  NO
Diagonal Born-Oppenheimer correction    ...  NO

-------------
DIPOLE MOMENT
-------------

Method             : SCF
Type of density    : Electron Density
Multiplicity       :   1
Irrep              :   0
Energy             :  -761.1525582687125961 Eh
Basis              : AO
                                X                 Y                 Z
Electronic contribution:     -4.886414743      -2.561761447       1.895586745
Nuclear contribution   :      5.203461759       4.212432192      -1.207266190
                        -----------------------------------------
Total Dipole Moment    :      0.317047015       1.650670744       0.688320555
                        -----------------------------------------
Magnitude (a.u.)       :      1.816319879
Magnitude (Debye)      :      4.616718235



--------------------
Rotational spectrum 
--------------------
 
Rotational constants in cm-1:             0.026890             0.013794             0.010306 
Rotational constants in MHz :           806.140775           413.521638           308.959397 

Dipole components along the rotational axes: 
x,y,z [a.u.] :     0.321828    -1.642124     0.706310 
x,y,z [Debye]:     0.818021    -4.173947     1.795298 

 

Dipole moment calculation done in   0.0 sec 


---------------------------------------------------
STATIC POLARIZABILITY TENSOR (Dipole/Dipole)
---------------------------------------------------

Method             : SCF
Type of density    : Electron Density
Type of derivative : Electric Field (Direction=X)
Multiplicity       :   1
Irrep              :   0
Basis              : AO

The raw cartesian tensor (atomic units):
     162.073088595        15.254170586       -22.923929689  
      15.254170586       154.382239234        10.396823662  
     -22.923929689        10.396823662        79.285077128  
diagonalized tensor: 
      71.006658704       149.094398518       175.639347736  

Orientation: 
       0.266920932        -0.479825745        -0.835775371  
      -0.167187345         0.831035130        -0.530498826  
       0.949105688         0.281332306         0.141599879  

Isotropic polarizability : 131.91347


Polarizability tensor calculation done in   0.0 sec 

Maximum memory used throughout the entire PROP-calculation: 18.5 MB

--------------------------------
SUGGESTED CITATIONS FOR THIS RUN
--------------------------------

Below you find a list of papers that are relevant to this ORCA run
We neither can nor want to force you to cite these papers, but we appreciate if you do
You receive ORCA, which is the product of decades of hard work by many enthusiastic individuals, for free
The only thing we kindly ask in return is that you cite our papers,
We deeply appreciate it, if you show your appreciation for ORCA by not just citing the generic ORCA reference.

Please note that relegating all ORCA citations to the supporting information does *not* help us.
SI sections are not indexed - citations you put there will not count into any citation statistics
But we need these citations in order to attract the funding resources that allow us to do what we are doing

Therefore, if you are a happy ORCA user, please consider citing a few of the papers listed below in the main body of your paper

In addition to the list printed below, the program has created the file /kaggle/working/Trp-OH-2/Trp-OH_InterFrag.bibtex that contains the list in bibtex format
You can import this file easily into all common literature databanks and citation aid programs

It goes without saying that in many instances, there are alternative algorithms to achieve similar
results as the ones you have gotten from ORCA. It is, of course, also the case that in some instances
ORCA just re-implements algorithms worked out by others. We are fully aware of that and we are also
fully appreciative of our colleagues work. Hence this citation list should not be read as indicating
that the listed papers, which are focused on our own work, are the only ones worth citing. It simply
meant to make it easier for users to cite ORCA specific papers. It is not a substitute for doing your
own literature research and citing the relevant literature in a scientifically appropriate manner.

List of essential papers. We consider these as the minimum necessary citations

  1. Neese, F.
     Software update: the ORCA program system, version 6.0
     WIRES Comput. Molec. Sci. 2025 15(1), e70019
     doi.org/10.1002/wcms.70019

List of papers to cite with high priority. The work reported in these papers was absolutely
necessary for this run to complete.
Our perspective: the developers of density functionals and basis sets usually get cited in chemistry papers
Good! But without the algorithms to do something with them, the functionals or basis sets would not do anything.
Hence, in our opinion, the algorithm design and method developments papers are equally worthy of getting cited

  1. Neese, F.
     An improvement of the resolution of the identity approximation for the formation of the Coulomb matrix
     J. Comp. Chem. 2003 24(14), 1740-1747
     doi.org/10.1002/jcc.10318
  2. Neese, F.; Wennmohs, F.; Hansen, A.; Becker, U.
     Efficient, approximate and parallel Hartree-Fock and hybrid DFT calculations. A 'chain-of-spheres' algorithm for the Hartree-Fock exchange
     Chem. Phys. 2009 356(1-3), 98-109
     doi.org/10.1016/j.chemphys.2008.10.036
  3. Grimme, S.; Antony, J.; Ehrlich, S.; Krieg, H.
     A consistent and accurate ab initio parametrization of density functional dispersion correction (DFT-D) for the 94 elements H-Pu
     J. Chem. Phys. 2010 132 , 154104
     doi.org/10.1063/1.3382344
  4. Grimme, S.; Ehrlich, S.; Goerigk, L.
     Effect of the damping function in dispersion corrected density functional theory
     J. Comput. Chem. 2011 32(7), 1456-1465
     doi.org/10.1002/jcc.21759
  5. Helmich-Paris, B.; de Souza, B.; Neese, F.; Izsák, R.
     An improved chain of spheres for exchange algorithm
     J. Chem. Phys. 2021 155(10), 104109
     doi.org/10.1063/5.0058766
  6. Neese, F.
     The SHARK Integral Generation and Digestion System
     J. Comp. Chem. 2022 44(3), 381
     doi.org/10.1002/jcc.26942

List of suggested additional citations. These are papers that are important in the 'surrounding' of 
of this run, or papers that preceded the highly important papers. If you like your results we are grateful for a citation.

  1. Izsak, R.; Neese, F.
     An overlap fitted chain of spheres exchange method
     J. Chem. Phys. 2011 135 , 144105
     doi.org/10.1063/1.3646921
  2. Izsak, R.; Hansen, A.; Neese, F.
     The resolution of identity and chain of spheres approximations for the LPNO-CCSD singles Fock term
     Molec. Phys. 2012 110 , 2413-2417
     doi.org/10.1080/00268976.2012.687466
  3. Neese, F.
     The ORCA program system
     WIRES Comput. Molec. Sci. 2012 2(1), 73-78
     doi.org/10.1002/wcms.81
  4. Izsak, R.; Neese, F.; Klopper, W.
     Robust fitting techniques in the chain of spheres approximation to the Fock exchange: The role of the complementary space
     J. Chem. Phys. 2013 139 , 
     doi.org/10.1063/1.4819264
  5. Neese, F.
     Software update: the ORCA program system, version 4.0
     WIRES Comput. Molec. Sci. 2018 8(1), 1-6
     doi.org/10.1002/wcms.1327
  6. Neese, F.; Wennmohs, F.; Becker, U.; Riplinger, C.
     The ORCA quantum chemistry program package
     J. Chem. Phys. 2020 152(22), 224108
     doi.org/10.1063/5.0004608
  7. Neese, F.
     Software update: The ORCA program system—Version 5.0
     WIRES Comput. Molec. Sci. 2022 12(1), e1606
     doi.org/10.1002/wcms.1606

List of optional additional citations

  1. Neese, F.
     Approximate second-order SCF convergence for spin unrestricted wavefunctions
     Chem. Phys. Lett. 2000 325(1-3), 93-98
     doi.org/10.1016/s0009-2614(00)00662-x

Timings for individual modules:

Sum of individual times          ...      138.233 sec (=   2.304 min)
Startup calculation              ...        3.376 sec (=   0.056 min)   2.4 %
SCF iterations                   ...       93.123 sec (=   1.552 min)  67.4 %
SCF Response                     ...       41.305 sec (=   0.688 min)  29.9 %
Property calculations            ...        0.429 sec (=   0.007 min)   0.3 %
                             ****ORCA TERMINATED NORMALLY****
TOTAL RUN TIME: 0 days 0 hours 2 minutes 18 seconds 713 msec
