
                                 *****************
                                 * O   R   C   A *
                                 *****************

                                            #,                                       
                                            ###                                      
                                            ####                                     
                                            #####                                    
                                            ######                                   
                                           ########,                                 
                                     ,,################,,,,,                         
                               ,,#################################,,                 
                          ,,##########################################,,             
                       ,#########################################, ''#####,          
                    ,#############################################,,   '####,        
                  ,##################################################,,,,####,       
                ,###########''''           ''''###############################       
              ,#####''   ,,,,##########,,,,          '''####'''          '####       
            ,##' ,,,,###########################,,,                        '##       
           ' ,,###''''                  '''############,,,                           
         ,,##''                                '''############,,,,        ,,,,,,###''
      ,#''                                            '''#######################'''  
     '                                                          ''''####''''         
             ,#######,   #######,   ,#######,      ##                                
            ,#'     '#,  ##    ##  ,#'     '#,    #''#        ,####,    ,#,          
            ##       ##  ##   ,#'  ##            #'  '#       #'       ,# #          
            ##       ##  #######   ##           ,######,      #####,      #          
            '#,     ,#'  ##    ##  '#,     ,#' ,#      #,     #,   #      #          
             '#######'   ##     ##  '#######'  #'      '#     '####' #    #          



                #########################################################
                #                        -***-                          #
                #          Department of theory and spectroscopy        #
                #                                                       #
                #                      Frank Neese                      #
                #                                                       #
                #     Directorship, Architecture, Infrastructure        #
                #                    SHARK, DRIVERS                     #
                #        Core code/Algorithms in most modules           #
                #                                                       #
                #        Max Planck Institute fuer Kohlenforschung      #
                #                Kaiser Wilhelm Platz 1                 #
                #                 D-45470 Muelheim/Ruhr                 #
                #                      Germany                          #
                #                                                       #
                #                  All rights reserved                  #
                #                        -***-                          #
                #########################################################


                         Program Version 6.1.1  -  RELEASE   -
                                (GIT: $487d211c$)
                          ($2025-11-21 10:33:24 +0100$)
                                                                         
                                  - NO-DMRG VERSION -                    
                                                                         


 With contributions from (in alphabetic order):
[Max-Planck-Institut fuer Kohlenforschung]                               
  Daniel Aravena         : Magnetic Suceptibility                        
  Michael Atanasov       : Ab Initio Ligand Field Theory (pilot matlab implementation)
  Alexander A. Auer      : GIAO ZORA, VPT2 properties, NMR spectrum      
  Ute Becker             : All parallelization in ORCA, NUMFREQ, NUMCALC 
  Giovanni Bistoni       : ED, misc. LED, open-shell LED, HFLD           
  Dmytro Bykov           : pre 5.0 version of the SCF Hessian            
  Marcos Casanova-Páez   : Triplet and SCS-CIS(D). UHF-(DLPNO)-IP/EA/STEOM-CCSD. UHF-CVS-IP/STEOM-CCSD   
  Vijay G. Chilkuri      : MRCI spin determinant printing, contributions to CSF-ICE 
  Pauline Colinet        : FMM embedding                                 
  Dipayan Datta          : RHF DLPNO-CCSD density                        
  Achintya Kumar Dutta   : EOM-CC, STEOM-CC                              
  Nicolas Foglia         : Exact transition moments, OPA infrastructure, MCD improvements    
  Dmitry Ganyushin       : Spin-Orbit,Spin-Spin,Magnetic field MRCI      
  Miquel Garcia-Rates    : C-PCM and meta-GGA Hessian, CCSD/C-PCM, Gaussian charge scheme 
  Tiago L. C. Gouveia    : GS-ROHF, GS-ROCIS                             
  Yang Guo               : DLPNO-NEVPT2, F12-NEVPT2, CIM, IAO-localization        
  Andreas Hansen         : Spin unrestricted coupled pair/coupled cluster methods 
  Ingolf Harden          : AUTO-CI MPn and infrastructure                
  Benjamin Helmich-Paris : MC-RPA, TRAH-(SCF,CASSCF), AVAS, COSX integrals, SCF dyn. polar., MC-PDFT, srDFT 
  Lee Huntington         : MR-EOM, pCC                                   
  Robert Izsak           : Overlap fitted RIJCOSX, COSX-SCS-MP3, EOM     
  Riya Kayal             : Wick's Theorem for AUTO-CI, AUTO-CI UHF-CCSDT 
  Emily Kempfer          : AUTO-CI RHF CISDT and CCSDT, approximate NEVPT4
  Christian Kollmar      : KDIIS, OOCD, Brueckner-CCSD(T), CCSD density, CASPT2, CASPT2-K, improved NEVPT2 
  Axel Koslowski         : Symmetry handling                             
  Simone Kossmann        : meta-GGA functionals, TD-DFT gradient, OOMP2, (MP2 Hessian; deprecated post 5.0) 
  Lucas Lang             : DCDCAS, Hyperfine gauge corrections, ICE-SOC+SSC
  Marvin Lechner         : AUTO-CI (C++ implementation), FIC-MRCC        
  Spencer Leger          : CASSCF response                               
  Dagmar Lenk            : GEPOL surface, SMD, ORCA-2-JSON               
  Dimitrios Liakos       : Extrapolation schemes; Compound Job, Property file
  Dimitrios Manganas     : Further ROCIS development; embedding schemes. LFT, Crystal Embedding 
  Dimitrios Pantazis     : SARC Basis sets                               
  Anastasios Papadopoulos: AUTO-CI, single reference methods and gradients 
  Taras Petrenko         : pre 6.0 DFT Hessian and TD-DFT gradient,  ECA, NRVS 
  Petra Pikulova         : Analytic Raman intensities                    
  Peter Pinski           : DLPNO-MP2, DLPNO-MP2 Gradient                 
  Shashank Vittal Rao    : ES-AILFT, MagRelax                            
  Christoph Reimann      : Effective Core Potentials                     
  Marius Retegan         : Local ZFS, SOC                                
  Christoph Riplinger    : Optimizer, TS searches, QM/MM, DLPNO-CCSD(T), (RO)-DLPNO pert. Triples 
  Michael Roemelt        : Original ROCIS implementation, recursive CI coupling coefficients
  Masaaki Saitow         : Open-shell DLPNO-CCSD energy and density      
  Barbara Sandhoefer     : DKH picture change effects                    
  Yorick L. A. Schmerwitz: GMF and freeze-and-release deltaSCF, NEB S-IDPP initial path                    
  Kantharuban Sivalingam : CASSCF convergence/infrastructure, NEVPT2, NEVPT3, NEVPT4(SD), FIC-MRCI and CEPA variants
  Bernardo de Souza      : ESD, SOC TD-DFT                               
  Georgi L. Stoychev     : AutoAux, RI-MP2 NMR, DLPNO-MP2 response, X2C  
  Van Anh Tran           : RI-MP2 g-tensors                              
  Willem Van den Heuvel  : Paramagnetic NMR                              
  Zikuan Wang            : NOTCH, Electric field optimization            
  Frank Wennmohs         : Technical directorship and infrastructure     
  Hang Xu                : AUTO-CI-Response properties                   
                                                                         
[FACCTs GmbH]                                                            
  Markus Bursch, Nicolas Foglia, Miquel Garcia-Rates, Ingolf Harden, Hagen Neugebauer, Anastasios Papadopoulos, 
  Christoph Riplinger, Bernardo de Souza, Georgi L. Stoychev                                                    
                                                                 
  APM, various basis sets, CI-OPT, improved COSX, DLPNO-Multilevel,           
  DOCKER, DRACO, updates on ESD, Fragmentator, GOAT, IRC, LR-CPCM, L-BFGS, MBIS, meta-GGA TD-DFT gradient, ML-optimized integration grids, 
  MM, NACMEs, nearIR, NEB, NEB-TS, NL-DFT gradient (VV10), 2- and 3-layer-ONIOM, interface openCOSMO-RS, QMMM,   
  Crystal-QMMM, RESP, rigid body optimization, SF, symmetry and pop. for TD-DFT, various functionals, SOLVATOR                                   
                                                                         
[Other institutions]                                                     
  V. Asgeirsson          : NEB                                           
  Christoph Bannwarth    : sTDA-DFT, sTD-DFT, PBEh-3c, B97-3c, D3        
  Giovanni Bistoni       : ETS/NOCV, ADLD/ADEX, COVALED                  
  Martin Brehm           : Molecular dynamics                            
  Ronald Cardenas        : ETS/NOCV                                      
  Martina Colucci        : COVALED                                       
  Sebastian Ehlert       : rSCAN, r2SCAN, r2SCAN-3c, D4, dhf basis sets  
  Marvin Friede          : D4 for Fr, Ra, Ac-Lr                          
  Lars Goerigk           : TD-DFT with DH, B97 family of functionals     
  Stefan Grimme          : VdW corrections, initial TS optimization, DFT functionals, gCP, sTDA/sTD-DF 
  Waldemar Hujo          : DFT-NL                                        
  H. Jonsson             : NEB                                           
  Holger Kruse           : gCP                                           
  Marcel Mueller         : wB97X-3c, vDZP basis set                      
  Hagen Neugebauer       : wr2SCAN, Native XTB                           
  Gianluca Regni         : ADLD/ADEX                                     
  Tobias Risthaus        : pre 6.0 range-separated hybrid DFT and stability analysis
  Lukas Wittmann         : regularized MP2, r2SCAN double-hybrids, wr2SCAN        
                                                                         
We gratefully acknowledge several colleagues who have allowed us to      
interface, adapt or use parts of their codes:                            
  Ed Valeev, F. Pavosevic, A. Kumar             : LibInt (2-el integral package), F12 methods 
  Garnet Chan, S. Sharma, J. Yang, R. Olivares  : DMRG                   
  Ulf Ekstrom                                   : XCFun DFT Library      
  Mihaly Kallay                                 : mrcc  (arbitrary order and MRCC methods)
  Frank Weinhold                                : gennbo (NPA and NBO analysis)           
  Simon Mueller                                 : openCOSMO-RS                            
  Christopher J. Cramer and Donald G. Truhlar   : smd solvation model                     
  S Lehtola, MJT Oliveira, MAL Marques          : LibXC Library                           
  Liviu Ungur et al                             : ANISO software                          


 Your calculation uses the libint2 library for the computation of 2-el integrals
 For citations please refer to: http://libint.valeyev.net

 Your ORCA version has been built with support for libXC version: 7.0.0
 For citations please refer to: https://libxc.gitlab.io

 This ORCA versions uses:
   CBLAS   interface :  Fast vector & matrix operations
   LAPACKE interface :  Fast linear algebra routines
   SCALAPACK package :  Parallel linear algebra routines
   Shared memory     :  Shared parallel matrices
   BLAS/LAPACK       :  OpenBLAS 0.3.29  USE64BITINT DYNAMIC_ARCH NO_AFFINITY SkylakeX SINGLE_THREADED
        Core in use  :  SkylakeX
   Copyright (c) 2011-2014, The OpenBLAS Project


  ***********************************
  * Starting time: Sat Mar 28 19:55:01 2026
  * Host name:     6f73ee06a95c
  * Process ID:    54
  * Working dir.:  /kaggle/working
  ***********************************

NOTE: MaxCore=3000 MB was set to SCF,MP2,MDCI,CIPSI,MRCI,RASCI and CIS
      => If you want to overwrite this, your respective input block should be placed after the MaxCore statement
Your calculation utilizes the atom-pairwise dispersion correction
with the Becke-Johnson damping scheme (D3BJ)


Your calculation utilizes the SMD solvation module
Please cite in your paper:
Marenich, A. V.; Cramer, C. J.; Truhlar, D. G. J. Phys. Chem. B 2009, 113, 6378 

Warning: RI is on but no J-basis has been assigned. Assigning Def2/J (nothing to worry about!)
================================================================================

----- Orbital basis set information -----
Your calculation utilizes the basis: 6-31G(d,p)
   H-He, Li-Ne : W. J. Hehre, R. Ditchfield and J.A. Pople, J. Chem. Phys. 56, 2257 (1972).
                 Note: He and Ne are unpublished basis sets taken from the Gaussian program.
                 Note: Li and B from J. D. Dill and J. A. Pople, J. Chem. Phys. 62, 2921 (1975).
   Na - Ar     : M. M. Francl, W. J. Pietro, W. J. Hehre, J. S. Binkley, M. S. Gordon, 
                 D. J. DeFrees and J. A. Pople, J. Chem. Phys. 77, 3654 (1982).
   K - Zn      : V. A. Rassolov, J. A. Pople, M. A. Ratner, and T. L. Windus, J. Chem. Phys. 109, 1223 (1998).

----- AuxJ basis set information -----
Your calculation utilizes the auxiliary basis: def2/J
   H-Rn: F. Weigend, Phys. Chem. Chem. Phys. 8, 1057 (2006).
   Fr-Lr: K. Eichkorn, F. Weigend, O. Treutler, R. Ahlrichs; Theor. Chem. Acc. 97, 119 (1997).

================================================================================
                                        WARNINGS
                       Please study these warnings very carefully!
================================================================================


WARNING: Geometry Optimization
  ===> : Switching off AutoStart
         For restart on a previous wavefunction, please use MOREAD

================================================================================
                                       INPUT FILE
================================================================================
NAME = /kaggle/working/Trp-OH-1/Trp-OH_InterFrag.inp
|  1> 
|  2> !RKS B3LYP 6-31G(d,p) TightSCF Opt D3BJ
|  3>  
|  4> %pal nprocs 2 end
|  5> %maxcore 3000
|  6> 
|  7> %cpcm
|  8>   smd true
|  9>   SMDsolvent "WATER"
| 10>   end
| 11> 
| 12> %scf
| 13>   MaxIter 1000
| 14>   SOSCF Start 0.00033
| 15>   end
| 16> end
| 17> 
| 18> %output
| 19>   PrintLevel Normal
| 20>   Print[ P_OrbEn ] 2        # print ALL orbital energies (not just up to LUMO+9) :contentReference[oaicite:10]{index=10}
| 21>   XYZFile true              # writes basename.xyz (handy for reuse) :contentReference[oaicite:11]{index=11}
| 22>   end
| 23> 
| 24> *xyz 0 1
| 25> O       -2.556000000     -2.727200000     -0.589000000
| 26> O        1.563800000     -0.673300000      1.816100000
| 27> O        2.392900000     -2.130900000      0.288400000
| 28> N       -1.119300000      2.471100000      0.397500000
| 29> N        4.030500000     -0.143400000     -0.659700000
| 30> C        0.478300000      1.225000000     -0.509200000
| 31> C        1.774600000      0.803000000     -1.076400000
| 32> C       -0.678100000      0.412800000     -0.341400000
| 33> C        2.775000000      0.253900000     -0.026900000
| 34> C       -1.665700000      1.218700000      0.229200000
| 35> C        0.175900000      2.484800000     -0.045900000
| 36> C       -0.980300000     -0.934800000     -0.621000000
| 37> C       -2.945400000      0.742400000      0.535500000
| 38> C       -2.256300000     -1.424900000     -0.320200000
| 39> C       -3.222100000     -0.597500000      0.249200000
| 40> C        2.232100000     -0.979800000      0.673800000
| 41> H        1.600300000      0.041400000     -1.848800000
| 42> H        2.235000000      1.654400000     -1.596200000
| 43> H        2.995300000      1.018500000      0.727900000
| 44> H        0.764800000      3.389800000      0.009600000
| 45> H       -1.604800000      3.265000000      0.791600000
| 46> H       -0.232900000     -1.583400000     -1.069300000
| 47> H       -3.698000000      1.385900000      0.978800000
| 48> H       -4.209300000     -0.993100000      0.477100000
| 49> H        4.707400000     -0.407000000      0.055700000
| 50> H        4.433100000      0.654200000     -1.150300000
| 51> H       -1.775700000     -3.156400000     -0.980000000
| 52> H        1.225100000     -1.475500000      2.267800000
| 53> *
| 54> 
| 55>                          ****END OF INPUT****
================================================================================

                       *****************************
                       * Geometry Optimization Run *
                       *****************************

Geometry optimization settings:
Update method            Update   .... BFGS
Choice of coordinates    CoordSys .... (2022) Redundant Internals
Initial Hessian          InHess   .... Almloef's Model
Max. no of cycles        MaxIter  .... 84

Convergence Tolerances:
Energy Change            TolE     ....  5.0000e-06 Eh
Max. Gradient            TolMAXG  ....  3.0000e-04 Eh/bohr
RMS Gradient             TolRMSG  ....  1.0000e-04 Eh/bohr
Max. Displacement        TolMAXD  ....  4.0000e-03 bohr
RMS Displacement         TolRMSD  ....  2.0000e-03 bohr
Strict Convergence                .... False

------------------------------------------------------------------------------
                        ORCA OPTIMIZATION COORDINATE SETUP
------------------------------------------------------------------------------

The optimization will be done in redundant internal coordinates (2022)
Making redundant internal coordinates   ...  (2022 redundants) done
Evaluating the initial hessian          ...  (Almloef) done
Evaluating the coordinates              ...  done
Calculating the B-matrix                .... done
Calculating the G-matrix                .... done
The number of degrees of freedom        ....  141

    -----------------------------------------------------------------
                    Redundant Internal Coordinates


    -----------------------------------------------------------------
         Definition                    Initial Value    Approx d2E/dq
    -----------------------------------------------------------------
      1. B(C   6,C   5)                  1.4765         0.454629   
      2. B(C   7,C   5)                  1.4231         0.553351   
      3. B(C   8,N   4)                  1.4610         0.431098   
      4. B(C   8,C   6)                  1.5504         0.346593   
      5. B(C   9,C   7)                  1.3966         0.609893   
      6. B(C   9,N   3)                  1.3767         0.587554   
      7. B(C  10,N   3)                  1.3691         0.604336   
      8. B(C  10,C   5)                  1.3759         0.657935   
      9. B(C  11,C   7)                  1.4091         0.582487   
     10. B(C  12,C   9)                  1.3994         0.603595   
     11. B(C  13,C  11)                  1.3996         0.603166   
     12. B(C  13,O   0)                  1.3631         0.617707   
     13. B(C  14,C  13)                  1.3934         0.617030   
     14. B(C  14,C  12)                  1.3978         0.607133   
     15. B(C  15,O   1)                  1.3585         0.628339   
     16. B(C  15,C   8)                  1.5191         0.388803   
     17. B(C  15,O   2)                  1.2245         1.027795   
     18. B(H  16,C   6)                  1.0986         0.348846   
     19. B(H  17,C   6)                  1.0987         0.348831   
     20. B(H  18,C   8)                  1.0968         0.351276   
     21. B(H  19,C  10)                  1.0812         0.371985   
     22. B(H  20,N   3)                  1.0106         0.431763   
     23. B(H  21,C  11)                  1.0864         0.364896   
     24. B(H  22,C  12)                  1.0849         0.366907   
     25. B(H  23,C  14)                  1.0877         0.363211   
     26. B(H  24,N   4)                  1.0195         0.417795   
     27. B(H  25,N   4)                  1.0193         0.418198   
     28. B(H  26,O   0)                  0.9726         0.496427   
     29. B(H  27,O   1)                  0.9810         0.481429   
     30. A(C  13,O   0,H  26)          108.9344         0.366952   
     31. A(C  15,O   1,H  27)          111.8729         0.366097   
     32. A(C   9,N   3,H  20)          124.8646         0.355276   
     33. A(C  10,N   3,H  20)          124.9548         0.356979   
     34. A(C   9,N   3,C  10)          110.1807         0.422370   
     35. A(H  24,N   4,H  25)          106.1296         0.299928   
     36. A(C   8,N   4,H  25)          109.5787         0.335467   
     37. A(C   8,N   4,H  24)          109.6895         0.335413   
     38. A(C   6,C   5,C  10)          125.7306         0.415020   
     39. A(C   7,C   5,C  10)          107.7144         0.429848   
     40. A(C   6,C   5,C   7)          126.5550         0.402493   
     41. A(C   8,C   6,H  17)          108.9249         0.318701   
     42. A(C   5,C   6,H  17)          109.1575         0.333249   
     43. A(C   8,C   6,H  16)          109.4365         0.318703   
     44. A(C   5,C   6,H  16)          109.2025         0.333252   
     45. A(H  16,C   6,H  17)          105.7275         0.287957   
     46. A(C   5,C   6,C   8)          114.0587         0.370994   
     47. A(C   9,C   7,C  11)          118.7694         0.427962   
     48. A(C   5,C   7,C  11)          134.1644         0.420580   
     49. A(C   5,C   7,C   9)          107.0662         0.424048   
     50. A(C   6,C   8,H  18)          110.3997         0.319064   
     51. A(N   4,C   8,H  18)          108.3638         0.328722   
     52. A(N   4,C   8,C   6)          110.9532         0.365330   
     53. A(C   6,C   8,C  15)          111.6697         0.361186   
     54. A(N   4,C   8,C  15)          106.6213         0.372612   
     55. A(C  15,C   8,H  18)          108.6936         0.325127   
     56. A(C   7,C   9,C  12)          122.6628         0.430704   
     57. A(N   3,C   9,C  12)          130.2258         0.425043   
     58. A(N   3,C   9,C   7)          107.1114         0.425833   
     59. A(N   3,C  10,C   5)          107.9274         0.433855   
     60. A(C   5,C  10,H  19)          131.6046         0.358453   
     61. A(N   3,C  10,H  19)          120.4679         0.351145   
     62. A(C   7,C  11,C  13)          119.1944         0.427113   
     63. A(C  13,C  11,H  21)          120.4534         0.352056   
     64. A(C   7,C  11,H  21)          120.3515         0.349987   
     65. A(C  14,C  12,H  22)          120.9934         0.352775   
     66. A(C   9,C  12,H  22)          121.4612         0.352426   
     67. A(C   9,C  12,C  14)          117.5454         0.430354   
     68. A(O   0,C  13,C  11)          119.5130         0.428816   
     69. A(C  11,C  13,C  14)          120.7844         0.431550   
     70. A(O   0,C  13,C  14)          119.7026         0.430568   
     71. A(C  13,C  14,H  23)          119.9175         0.353136   
     72. A(C  12,C  14,H  23)          119.0388         0.352171   
     73. A(C  12,C  14,C  13)          121.0436         0.432059   
     74. A(O   2,C  15,C   8)          124.8426         0.434246   
     75. A(O   1,C  15,C   8)          112.3609         0.397857   
     76. A(O   1,C  15,O   2)          122.7760         0.470701   
     77. D(H  16,C   6,C   5,C  10)   -147.2155         0.015240   
     78. D(H  16,C   6,C   5,C   7)     32.8110         0.015240   
     79. D(H  17,C   6,C   5,C   7)    147.9526         0.015240   
     80. D(C   8,C   6,C   5,C  10)     90.0065         0.015240   
     81. D(C   8,C   6,C   5,C   7)    -89.9670         0.015240   
     82. D(C  11,C   7,C   5,C   6)     -0.0223         0.020956   
     83. D(C   9,C   7,C   5,C   6)    179.9743         0.020956   
     84. D(C  11,C   7,C   5,C  10)   -179.9998         0.020956   
     85. D(C   9,C   7,C   5,C  10)     -0.0032         0.020956   
     86. D(C  15,C   8,N   4,H  25)    179.6725         0.015845   
     87. D(C   6,C   8,N   4,H  25)     57.8726         0.015845   
     88. D(H  18,C   8,N   4,H  24)     52.6462         0.015845   
     89. D(C  15,C   8,N   4,H  24)    -64.1954         0.015845   
     90. D(N   4,C   8,C   6,C   5)    179.9567         0.010000   
     91. D(C   6,C   8,N   4,H  24)    174.0047         0.015845   
     92. D(C  15,C   8,C   6,H  16)    -61.4929         0.010000   
     93. D(C  15,C   8,C   6,H  17)   -176.6345         0.010000   
     94. D(C  15,C   8,C   6,C   5)     61.1574         0.010000   
     95. D(N   4,C   8,C   6,H  16)     57.3064         0.010000   
     96. D(N   4,C   8,C   6,H  17)    -57.8352         0.010000   
     97. D(C  12,C   9,C   7,C  11)      0.0068         0.025689   
     98. D(N   3,C   9,C   7,C  11)    179.9945         0.025689   
     99. D(N   3,C   9,C   7,C   5)     -0.0027         0.025689   
    100. D(C  12,C   9,N   3,H  20)      0.0020         0.027736   
    101. D(C  12,C   9,N   3,C  10)    179.9942         0.027736   
    102. D(C  12,C   9,C   7,C   5)   -179.9904         0.025689   
    103. D(C   7,C   9,N   3,H  20)   -179.9843         0.027736   
    104. D(C   7,C   9,N   3,C  10)      0.0078         0.027736   
    105. D(H  19,C  10,N   3,C   9)   -179.9492         0.029460   
    106. D(C   5,C  10,N   3,H  20)    179.9822         0.029460   
    107. D(C   5,C  10,N   3,C   9)     -0.0099         0.029460   
    108. D(H  19,C  10,C   5,C   7)    179.9379         0.030192   
    109. D(H  19,C  10,C   5,C   6)     -0.0398         0.030192   
    110. D(N   3,C  10,C   5,C   7)      0.0079         0.030192   
    111. D(N   3,C  10,C   5,C   6)   -179.9698         0.030192   
    112. D(H  19,C  10,N   3,H  20)      0.0430         0.029460   
    113. D(H  21,C  11,C   7,C   9)    179.6959         0.023320   
    114. D(H  21,C  11,C   7,C   5)     -0.3078         0.023320   
    115. D(C  13,C  11,C   7,C   9)      0.0058         0.023320   
    116. D(C  13,C  11,C   7,C   5)   -179.9979         0.023320   
    117. D(H  22,C  12,C   9,C   7)    179.9937         0.025132   
    118. D(H  22,C  12,C   9,N   3)      0.0092         0.025132   
    119. D(C  14,C  12,C   9,C   7)     -0.0105         0.025132   
    120. D(C  14,C  12,C   9,N   3)   -179.9950         0.025132   
    121. D(C  14,C  13,C  11,H  21)   -179.7045         0.025095   
    122. D(C  14,C  13,C  11,C   7)     -0.0147         0.025095   
    123. D(O   0,C  13,C  11,H  21)      0.2555         0.025095   
    124. D(O   0,C  13,C  11,C   7)    179.9452         0.025095   
    125. D(C  14,C  13,O   0,H  26)   -179.9624         0.027979   
    126. D(C  11,C  13,O   0,H  26)      0.0773         0.027979   
    127. D(H  23,C  14,C  13,C  11)    179.9925         0.026330   
    128. D(H  23,C  14,C  13,O   0)      0.0326         0.026330   
    129. D(C  12,C  14,C  13,C  11)      0.0111         0.026330   
    130. D(C  12,C  14,C  13,O   0)   -179.9488         0.026330   
    131. D(H  23,C  14,C  12,H  22)      0.0157         0.025444   
    132. D(H  23,C  14,C  12,C   9)   -179.9801         0.025444   
    133. D(C  13,C  14,C  12,H  22)    179.9973         0.025444   
    134. D(C  13,C  14,C  12,C   9)      0.0014         0.025444   
    135. D(O   1,C  15,C   8,H  18)     29.9400         0.011250   
    136. D(O   1,C  15,C   8,C   6)    -92.0929         0.011250   
    137. D(O   1,C  15,C   8,N   4)    146.5621         0.011250   
    138. D(C   8,C  15,O   1,H  27)   -179.3615         0.029023   
    139. D(O   2,C  15,O   1,H  27)     -0.9387         0.029023   
    140. D(O   2,C  15,C   8,C   6)     89.5229         0.011250   
    141. D(O   2,C  15,C   8,N   4)    -31.8221         0.011250   
    -----------------------------------------------------------------

Number of atoms                         .... 28
Number of degrees of freedom            .... 141


         *************************************************************
         *                GEOMETRY OPTIMIZATION CYCLE   1            *
         *************************************************************
---------------------------------
CARTESIAN COORDINATES (ANGSTROEM)
---------------------------------
  O     -2.556000   -2.727200   -0.589000
  O      1.563800   -0.673300    1.816100
  O      2.392900   -2.130900    0.288400
  N     -1.119300    2.471100    0.397500
  N      4.030500   -0.143400   -0.659700
  C      0.478300    1.225000   -0.509200
  C      1.774600    0.803000   -1.076400
  C     -0.678100    0.412800   -0.341400
  C      2.775000    0.253900   -0.026900
  C     -1.665700    1.218700    0.229200
  C      0.175900    2.484800   -0.045900
  C     -0.980300   -0.934800   -0.621000
  C     -2.945400    0.742400    0.535500
  C     -2.256300   -1.424900   -0.320200
  C     -3.222100   -0.597500    0.249200
  C      2.232100   -0.979800    0.673800
  H      1.600300    0.041400   -1.848800
  H      2.235000    1.654400   -1.596200
  H      2.995300    1.018500    0.727900
  H      0.764800    3.389800    0.009600
  H     -1.604800    3.265000    0.791600
  H     -0.232900   -1.583400   -1.069300
  H     -3.698000    1.385900    0.978800
  H     -4.209300   -0.993100    0.477100
  H      4.707400   -0.407000    0.055700
  H      4.433100    0.654200   -1.150300
  H     -1.775700   -3.156400   -0.980000
  H      1.225100   -1.475500    2.267800

----------------------------
CARTESIAN COORDINATES (A.U.)
----------------------------
  NO LB      ZA    FRAG     MASS         X           Y           Z
   0 O     8.0000    0    15.999   -4.830140   -5.153661   -1.113049
   1 O     8.0000    0    15.999    2.955154   -1.272353    3.431932
   2 O     8.0000    0    15.999    4.521926   -4.026817    0.544997
   3 N     7.0000    0    14.007   -2.115170    4.669702    0.751166
   4 N     7.0000    0    14.007    7.616541   -0.270987   -1.246652
   5 C     6.0000    0    12.011    0.903856    2.314915   -0.962249
   6 C     6.0000    0    12.011    3.353508    1.517450   -2.034101
   7 C     6.0000    0    12.011   -1.281423    0.780079   -0.645153
   8 C     6.0000    0    12.011    5.243990    0.479801   -0.050834
   9 C     6.0000    0    12.011   -3.147717    2.303009    0.433125
  10 C     6.0000    0    12.011    0.332403    4.695591   -0.086738
  11 C     6.0000    0    12.011   -1.852499   -1.766516   -1.173520
  12 C     6.0000    0    12.011   -5.565999    1.402933    1.011948
  13 C     6.0000    0    12.011   -4.263789   -2.692671   -0.605090
  14 C     6.0000    0    12.011   -6.088887   -1.129111    0.470920
  15 C     6.0000    0    12.011    4.218058   -1.851554    1.273297
  16 H     1.0000    0     1.008    3.024129    0.078235   -3.493726
  17 H     1.0000    0     1.008    4.223538    3.126363   -3.016381
  18 H     1.0000    0     1.008    5.660297    1.924686    1.375532
  19 H     1.0000    0     1.008    1.445263    6.405794    0.018141
  20 H     1.0000    0     1.008   -3.032632    6.169956    1.495907
  21 H     1.0000    0     1.008   -0.440117   -2.992192   -2.020684
  22 H     1.0000    0     1.008   -6.988207    2.618971    1.849664
  23 H     1.0000    0     1.008   -7.954424   -1.876687    0.901588
  24 H     1.0000    0     1.008    8.895697   -0.769119    0.105258
  25 H     1.0000    0     1.008    8.377345    1.236259   -2.173752
  26 H     1.0000    0     1.008   -3.355587   -5.964732   -1.851932
  27 H     1.0000    0     1.008    2.315103   -2.788291    4.285521

--------------------------------
INTERNAL COORDINATES (ANGSTROEM)
--------------------------------
 O      0   0   0     0.000000000000     0.00000000     0.00000000
 O      1   0   0     5.193819717703     0.00000000     0.00000000
 O      2   1   0     2.268451423328    73.97586548     0.00000000
 N      2   1   3     4.370206280028    69.34254170   128.95996678
 N      3   2   1     2.744227326589    89.16394590   128.30765528
 C      4   2   1     2.219728780730    44.50418245   278.05037085
 C      6   4   2     1.476547842097   161.66258936   255.01130398
 C      6   4   2     1.423055388943    71.78235891    74.94125218
 C      5   3   2     1.461014503693    62.25780885   332.82807378
 C      4   2   1     1.376729316169    68.21146702     7.14905581
 C      4   2   1     1.369063289260    62.06315335   237.91352393
 C      8   6   4     1.409087208089   134.16438235   180.00512631
 C     10   4   2     1.399397538229   130.22580184   133.18768126
 C      1   2   3     1.363106312802    49.94475464   228.37361993
 C     14   1   2     1.393404736607   119.70255955   228.03040620
 C      3   2   1     1.224508476900    30.23240914   111.17744368
 H      7   6   4     1.098643167730   109.20254993   212.72812323
 H      7   6   4     1.098654704627   109.15749943   327.86973148
 H      9   5   3     1.096753522903   108.36378775   129.44378355
 H     11   4   2     1.081160700359   120.46794017   230.06999246
 H      4   2   1     1.010595007904   137.18834752   125.46699209
 H     12   8   6     1.086398458210   120.35149784   359.69220867
 H     13  10   4     1.084902714533   121.46120480     0.00000000
 H     15  14   1     1.087658774616   119.91753448     0.03264789
 H      5   3   2     1.019546825801    88.08113962    86.31353487
 H      5   3   2     1.019284494143   165.63255560   274.66056923
 H      1   2   3     0.972605639507    73.99576061     1.38704963
 H      2   1   3     0.980956380274    67.41606759   268.91217942

---------------------------
INTERNAL COORDINATES (A.U.)
---------------------------
 O      0   0   0     0.000000000000     0.00000000     0.00000000
 O      1   0   0     9.814896855419     0.00000000     0.00000000
 O      2   1   0     4.286751938194    73.97586548     0.00000000
 N      2   1   3     8.258493017997    69.34254170   128.95996678
 N      3   2   1     5.185838096477    89.16394590   128.30765528
 C      4   2   1     4.194679487162    44.50418245   278.05037085
 C      6   4   2     2.790271045195   161.66258936   255.01130398
 C      6   4   2     2.689184958503    71.78235891    74.94125218
 C      5   3   2     2.760917289666    62.25780885   332.82807378
 C      4   2   1     2.601641368101    68.21146702     7.14905581
 C      4   2   1     2.587154676707    62.06315335   237.91352393
 C      8   6   4     2.662788922100   134.16438235   180.00512631
 C     10   4   2     2.644478099735   130.22580184   133.18768126
 C      1   2   3     2.575897622615    49.94475464   228.37361993
 C     14   1   2     2.633153345897   119.70255955   228.03040620
 C      3   2   1     2.313985670006    30.23240914   111.17744368
 H      7   6   4     2.076134705914   109.20254993   212.72812323
 H      7   6   4     2.076156507490   109.15749943   327.86973148
 H      9   5   3     2.072563794700   108.36378775   129.44378355
 H     11   4   2     2.043097630436   120.46794017   230.06999246
 H      4   2   1     1.909747797246   137.18834752   125.46699209
 H     12   8   6     2.052995558330   120.35149784   359.69220867
 H     13  10   4     2.050169012414   121.46120480     0.00000000
 H     15  14   1     2.055377211181   119.91753448     0.03264789
 H      5   3   2     1.926664281472    88.08113962    86.31353487
 H      5   3   2     1.926168546482   165.63255560   274.66056923
 H      1   2   3     1.837958294975    73.99576061     1.38704963
 H      2   1   3     1.853738908040    67.41606759   268.91217942

---------------------
BASIS SET INFORMATION
---------------------
There are 4 groups of distinct atoms

 Group   1 Type O   : 10s4p1d contracted to 3s2p1d pattern {631/31/1}
 Group   2 Type N   : 10s4p1d contracted to 3s2p1d pattern {631/31/1}
 Group   3 Type C   : 10s4p1d contracted to 3s2p1d pattern {631/31/1}
 Group   4 Type H   : 4s1p contracted to 2s1p pattern {31/1}

Atom   0O    basis set group =>   1
Atom   1O    basis set group =>   1
Atom   2O    basis set group =>   1
Atom   3N    basis set group =>   2
Atom   4N    basis set group =>   2
Atom   5C    basis set group =>   3
Atom   6C    basis set group =>   3
Atom   7C    basis set group =>   3
Atom   8C    basis set group =>   3
Atom   9C    basis set group =>   3
Atom  10C    basis set group =>   3
Atom  11C    basis set group =>   3
Atom  12C    basis set group =>   3
Atom  13C    basis set group =>   3
Atom  14C    basis set group =>   3
Atom  15C    basis set group =>   3
Atom  16H    basis set group =>   4
Atom  17H    basis set group =>   4
Atom  18H    basis set group =>   4
Atom  19H    basis set group =>   4
Atom  20H    basis set group =>   4
Atom  21H    basis set group =>   4
Atom  22H    basis set group =>   4
Atom  23H    basis set group =>   4
Atom  24H    basis set group =>   4
Atom  25H    basis set group =>   4
Atom  26H    basis set group =>   4
Atom  27H    basis set group =>   4
---------------------------------
AUXILIARY/J BASIS SET INFORMATION
---------------------------------
There are 4 groups of distinct atoms

 Group   1 Type O   : 12s5p4d2f1g contracted to 6s4p3d1f1g pattern {711111/2111/211/2/1}
 Group   2 Type N   : 12s5p4d2f1g contracted to 6s4p3d1f1g pattern {711111/2111/211/2/1}
 Group   3 Type C   : 12s5p4d2f1g contracted to 6s4p3d1f1g pattern {711111/2111/211/2/1}
 Group   4 Type H   : 5s2p1d contracted to 3s1p1d pattern {311/2/1}

Atom   0O    basis set group =>   1
Atom   1O    basis set group =>   1
Atom   2O    basis set group =>   1
Atom   3N    basis set group =>   2
Atom   4N    basis set group =>   2
Atom   5C    basis set group =>   3
Atom   6C    basis set group =>   3
Atom   7C    basis set group =>   3
Atom   8C    basis set group =>   3
Atom   9C    basis set group =>   3
Atom  10C    basis set group =>   3
Atom  11C    basis set group =>   3
Atom  12C    basis set group =>   3
Atom  13C    basis set group =>   3
Atom  14C    basis set group =>   3
Atom  15C    basis set group =>   3
Atom  16H    basis set group =>   4
Atom  17H    basis set group =>   4
Atom  18H    basis set group =>   4
Atom  19H    basis set group =>   4
Atom  20H    basis set group =>   4
Atom  21H    basis set group =>   4
Atom  22H    basis set group =>   4
Atom  23H    basis set group =>   4
Atom  24H    basis set group =>   4
Atom  25H    basis set group =>   4
Atom  26H    basis set group =>   4
Atom  27H    basis set group =>   4


           ************************************************************
           *        Program running with 2 parallel MPI-processes     *
           *              working on a common directory               *
           ************************************************************
------------------------------------------------------------------------------
                             ORCA STARTUP CALCULATIONS
                           -- RI-GTO INTEGRALS CHOSEN --
------------------------------------------------------------------------------
------------------------------------------------------------------------------
                   ___                                                        
                  /   \      - P O W E R E D   B Y -                         
                 /     \                                                     
                 |  |  |   _    _      __       _____    __    __             
                 |  |  |  | |  | |    /  \     |  _  \  |  |  /  |          
                  \  \/   | |  | |   /    \    | | | |  |  | /  /          
                 / \  \   | |__| |  /  /\  \   | |_| |  |  |/  /          
                |  |  |   |  __  | /  /__\  \  |    /   |      \           
                |  |  |   | |  | | |   __   |  |    \   |  |\   \          
                \     /   | |  | | |  |  |  |  | |\  \  |  | \   \       
                 \___/    |_|  |_| |__|  |__|  |_| \__\ |__|  \__/        
                                                                              
                      - O R C A' S   B I G   F R I E N D -                    
                                      &                                       
                       - I N T E G R A L  F E E D E R -                       
                                                                              
 v1 FN, 2020, v2 2021, v3 2022-2024                                           
------------------------------------------------------------------------------


----------------------
SHARK INTEGRAL PACKAGE
----------------------

Number of atoms                             ...     28
Number of basis functions                   ...    284
Number of shells                            ...    132
Maximum angular momentum                    ...      2
Integral batch strategy                     ... SHARK/LIBINT Hybrid
RI-J (if used) integral strategy            ... SPLIT-RIJ (Revised 2003 algorithm where possible)
Printlevel                                  ...      1
Contraction scheme used                     ... SEGMENTED contraction
Prescreening option                         ... SCHWARTZ
   Thresh                                   ... 2.500e-11
   Tcut                                     ... 2.500e-12
   Tpresel                                  ... 2.500e-12 
Coulomb Range Separation                    ... NOT USED
Exchange Range Separation                   ... NOT USED
Multipole approximations                    ... NOT USED
Finite Nucleus Model                        ... NOT USED
CABS basis                                  ... NOT available
Auxiliary Coulomb fitting basis             ... AVAILABLE
   # of basis functions in Aux-J            ...    916
   # of shells in Aux-J                     ...    300
   Maximum angular momentum in Aux-J        ...      4
Auxiliary J/K fitting basis                 ... NOT available
Auxiliary Correlation fitting basis         ... NOT available
Auxiliary 'external' fitting basis          ... NOT available

Checking pre-screening integrals            ... done (  0.0 sec) Dimension = 132
   => SHARK Basis and OBASIS are compatible. Storing Pre-screening
Shell pair information
Shell pair cut-off parameter TPreSel        ...   2.5e-12
Total number of shell pairs                 ...      8778
Shell pairs after pre-screening             ...      7048
Total number of primitive shell pairs       ...     45522
Primitive shell pairs kept                  ...     21980
          la=0 lb=0:   2093 shell pairs
          la=1 lb=0:   2567 shell pairs
          la=1 lb=1:    828 shell pairs
          la=2 lb=0:    890 shell pairs
          la=2 lb=1:    563 shell pairs
          la=2 lb=2:    107 shell pairs

Checking whether 4 symmetric matrices of dimension 284 fit in memory
:Max Core in MB      =   3000.00
 MB in use           =     12.98
 MB left             =   2987.02
 MB needed           =      1.24
 Data fit in memory  = YES
Calculating RI/J V-Matrix + Cholesky decomp.... done (  0.2 sec)
Calculating Nuclear repulsion               ... done (  0.0 sec) ENN=   1096.667249423429 Eh

Diagonalization of the overlap matrix:
Smallest eigenvalue                        ... 3.519e-04
Time for diagonalization                   ...    0.009 sec
Threshold for overlap eigenvalues          ... 1.000e-07
Number of eigenvalues below threshold      ... 0
Time for construction of square roots      ...    0.003 sec
Total time needed                          ...    0.013 sec

-------------------
DFT GRID GENERATION
-------------------

General Integration Accuracy     IntAcc      ... 4.388
Radial Grid Type                 RadialGrid  ... OptM3 with GC (2021)
Angular Grid (max. ang.)         AngularGrid ... 4 (Lebedev-302)
Angular grid pruning method      GridPruning ... 4 (adaptive)
Weight generation scheme         WeightScheme... mBecke (2022)
Basis function cutoff            BFCut       ... 1.0000e-11
Integration weight cutoff        WCut        ... 1.0000e-14
Partially contracted basis set               ... off
Rotationally invariant grid construction     ... off
Angular grids for H and He will be reduced by one unit

Total number of grid points                  ...   134255
Total number of batches                      ...     2113
Average number of points per batch           ...       63
Average number of grid points per atom       ...     4795

--------------------
COSX GRID GENERATION
--------------------

GRIDX 1
-------
General Integration Accuracy     IntAcc      ... 3.816
Radial Grid Type                 RadialGrid  ... OptM3 with GC (2021)
Angular Grid (max. ang.)         AngularGrid ... 1 (Lebedev-50)
Angular grid pruning method      GridPruning ... 4 (adaptive)
Weight generation scheme         WeightScheme... mBecke (2022)
Basis function cutoff            BFCut       ... 1.0000e-11
Integration weight cutoff        WCut        ... 1.0000e-14
Partially contracted basis set               ... on
Rotationally invariant grid construction     ... off
Angular grids for H and He will be reduced by one unit

Total number of grid points                  ...    17057
Total number of batches                      ...      149
Average number of points per batch           ...      114
Average number of grid points per atom       ...      609
UseSFitting                                  ... on

GRIDX 2
-------
General Integration Accuracy     IntAcc      ... 4.020
Radial Grid Type                 RadialGrid  ... OptM3 with GC (2021)
Angular Grid (max. ang.)         AngularGrid ... 2 (Lebedev-110)
Angular grid pruning method      GridPruning ... 4 (adaptive)
Weight generation scheme         WeightScheme... mBecke (2022)
Basis function cutoff            BFCut       ... 1.0000e-11
Integration weight cutoff        WCut        ... 1.0000e-14
Partially contracted basis set               ... on
Rotationally invariant grid construction     ... off
Angular grids for H and He will be reduced by one unit

Total number of grid points                  ...    37276
Total number of batches                      ...      307
Average number of points per batch           ...      121
Average number of grid points per atom       ...     1331
UseSFitting                                  ... on

GRIDX 3
-------
General Integration Accuracy     IntAcc      ... 4.338
Radial Grid Type                 RadialGrid  ... OptM3 with GC (2021)
Angular Grid (max. ang.)         AngularGrid ... 3 (Lebedev-194)
Angular grid pruning method      GridPruning ... 4 (adaptive)
Weight generation scheme         WeightScheme... mBecke (2022)
Basis function cutoff            BFCut       ... 1.0000e-11
Integration weight cutoff        WCut        ... 1.0000e-14
Partially contracted basis set               ... on
Rotationally invariant grid construction     ... off
Angular grids for H and He will be reduced by one unit

Total number of grid points                  ...    81643
Total number of batches                      ...      649
Average number of points per batch           ...      125
Average number of grid points per atom       ...     2916
UseSFitting                                  ... on
Grids setup in   3.1 sec
Initializing property integral containers    ... done (  0.0 sec)

SHARK setup successfully completed in   4.0 seconds

Maximum memory used throughout the entire STARTUP-calculation: 46.6 MB


           ************************************************************
           *        Program running with 2 parallel MPI-processes     *
           *              working on a common directory               *
           ************************************************************
-------------------------------------------------------------------------------
                                 ORCA GUESS
                   Start orbitals & Density for SCF / CASSCF
-------------------------------------------------------------------------------

------------
SCF SETTINGS
------------
Hamiltonian:
 Density Functional     Method          .... DFT(GTOs)
 Exchange Functional    Exchange        .... B88
   X-Alpha parameter    XAlpha          ....  0.666667
   Becke's b parameter  XBeta           ....  0.004200
 Correlation Functional Correlation     .... LYP
 LDA part of GGA corr.  LDAOpt          .... VWN-5
 Gradients option       PostSCFGGA      .... off
 Hybrid DFT is turned on
   Fraction HF Exchange ScalHFX         ....  0.200000
   Scaling of DF-GGA-X  ScalDFX         ....  0.720000
   Scaling of DF-GGA-C  ScalDFC         ....  0.810000
   Scaling of DF-LDA-C  ScalLDAC        ....  1.000000
   Perturbative correction              ....  0.000000
   NL short-range parameter             ....  4.800000
 RI-approximation to the Coulomb term is turned on
   Number of AuxJ basis functions       .... 916
   RIJ-COSX (HFX calculated with COS-X)).... on


General Settings:
 Integral files         IntName         .... /kaggle/working/Trp-OH-1/Trp-OH_InterFrag
 Hartree-Fock type      HFTyp           .... RHF
 Total Charge           Charge          ....    0
 Multiplicity           Mult            ....    1
 Number of Electrons    NEL             ....  116
 Basis Dimension        Dim             ....  284
 Nuclear Repulsion      ENuc            ....   1096.6672494234 Eh

Convergence Acceleration:
 AO-DIIS                CNVDIIS         .... on
   Start iteration      DIISMaxIt       ....    12
   Startup error        DIISStart       ....  0.200000
   # of expansion vecs  DIISMaxEq       ....     5
   Bias factor          DIISBfac        ....   1.050
   Max. coefficient     DIISMaxC        ....  10.000
 MO-DIIS                CNVKDIIS        .... off
 Trust-Rad. Augm. Hess. CNVTRAH         .... auto
   Auto Start mean grad. ratio tolernc. ....  1.125000
   Auto Start start iteration           ....    50
   Auto Start num. interpolation iter.  ....    10
   Max. Number of Micro iterations      ....    24
   Max. Number of Macro iterations      .... Maxiter - #DIIS iter
   Number of Davidson start vectors     ....     2
   Converg. threshold    (grad. norm)   ....   1.000e-05
   Grad. Scal. Fac. for Micro threshold ....   0.100
   Minimum threshold for Micro iter.    ....   1.000e-02
   NR start threshold (gradient norm)   ....   1.000e-04
   Initial trust radius                 ....   0.400
   Minimum AH scaling param. (alpha)    ....   1.000
   Maximum AH scaling param. (alpha)    .... 1000.000
   Quad. conv. algorithm                .... NR
   White noise on init. David. guess    .... on
   Maximum white noise                  ....   0.010
   Pseudo random numbers                .... off
   Inactive MOs                         .... canonical
   Orbital update algorithm             .... Taylor
   Preconditioner                       .... Diag
   Full preconditioner red. dimension   ....   250
 SOSCF                 CNVSOSCF           .... on
   Start iteration     SOSCFMaxIt         ....   150
   Startup grad/error  SOSCFStart         ....  0.000330
   Hessian update      SOSCFHessUp        .... L-BFGS
   Autom. constraints  SOSCFAutoConstrain .... off
 Level Shifting         CNVShift        .... on
   Level shift para.    LevelShift      ....    0.2500
   Turn off err/grad.   ShiftErr        ....    0.0010
 Zerner damping         CNVZerner       .... off
 Static damping         CNVDamp         .... on
   Fraction old density DampFac         ....    0.7000
   Max. Damping (<1)    DampMax         ....    0.9800
   Min. Damping (>=0)   DampMin         ....    0.0000
   Turn off err/grad.   DampErr         ....    0.1000

SCF Procedure:
 Maximum # iterations   MaxIter         ....  1000
 SCF integral mode      SCFMode         .... Direct
   Integral package                     .... SHARK and LIBINT hybrid scheme
 Reset frequency        DirectResetFreq ....    20
 Integral Threshold     Thresh          ....  2.500e-11 Eh
 Primitive CutOff       TCut            ....  2.500e-12 Eh

Convergence Tolerance:
 Convergence Check Mode ConvCheckMode   .... Total+1el-Energy
 Convergence forced     ConvForced      .... 0
 Energy Change          TolE            ....  1.000e-08 Eh
 1-El. energy change                    ....  1.000e-05 Eh
 Orbital Gradient       TolG            ....  1.000e-05
 Orbital Rotation angle TolX            ....  1.000e-05
 DIIS Error             TolErr          ....  5.000e-07

------------------------------
INITIAL GUESS: MODEL POTENTIAL
------------------------------
Loading Hartree-Fock densities                     ... done
Calculating cut-offs                               ... done
Initializing the effective Hamiltonian             ... done
Setting up the integral package (SHARK)            ... done
Starting the Coulomb interaction                   ... done (   0.3 sec)
Making the grid                                    ... done (   0.4 sec)
Mapping shells                                     ... done
Starting the XC term evaluation                    ... done (   0.3 sec)
  promolecular density results
     # of electrons  =    115.992221295
     EX              =    -97.953556301
     EC              =     -3.992379757
     EX+EC           =   -101.945936058
Transforming the Hamiltonian                       ... done (   0.0 sec)
Diagonalizing the Hamiltonian                      ... done (   0.0 sec)
Back transforming the eigenvectors                 ... done (   0.0 sec)
Now organizing SCF variables                       ... done
                      ------------------
                      INITIAL GUESS DONE (   1.0 sec)
                      ------------------
             **** ENERGY FILE WAS UPDATED (/kaggle/working/Trp-OH-1/Trp-OH_InterFrag.en.tmp) ****
Finished Guess after   1.3 sec
Maximum memory used throughout the entire GUESS-calculation: 18.8 MB


           ************************************************************
           *        Program running with 2 parallel MPI-processes     *
           *              working on a common directory               *
           ************************************************************

-------------------------------------------------------------------------------------------
                                      ORCA LEAN-SCF
                              memory conserving SCF solver
-------------------------------------------------------------------------------------------

--------------------
CPCM SOLVATION MODEL
--------------------
CPCM parameters:
  Epsilon                                         ...      78.3550
  Refrac                                          ...       1.3328
  Rsolv                                           ...       1.3000
  Surface type                                    ... GAUSSIAN VDW
  Discretization scheme                           ... Constant charge density
    Threshold for H atoms                         ...       5.0000 (charges/Ang^2)
    Threshold for non-H atoms                     ...       5.0000 (charges/Ang^2)
  Epsilon function type                           ...         CPCM
Solvent:                                          ... WATER
SMD-CDS solvent descriptors:
  Soln                                            ...       1.3328
  Soln25                                          ...       1.3323
  Sola                                            ...       0.0000
  Solb                                            ...       0.0000
  Solg                                            ...       0.0000
  Solc                                            ...       0.0000
  Solh                                            ...       0.0000
Radii:
  Scheme                                          ... Element-dependent radii
  Radius for O  used is    2.8724 Bohr (=   1.5200 Ang.)
  Radius for N  used is    3.5716 Bohr (=   1.8900 Ang.)
  Radius for C  used is    3.4960 Bohr (=   1.8500 Ang.)
  Radius for H  used is    2.2677 Bohr (=   1.2000 Ang.)
Calculating surface                               ...        done! (  0.0s)
Cavity surface points                             ...         2110
Cavity Volume                                     ...    1442.1195
Cavity Surface-area                               ...     857.9233
Calculating surface distance matrix               ...        done! (  0.1s)
Performing Cholesky decomposition & store         ...        done! (  0.2s)
Overall time for CPCM initialization              ...                 0.3s

----------------------------------------D-I-I-S--------------------------------------------
Iteration    Energy (Eh)           Delta-E    RMSDP     MaxDP     DIISErr   Damp  Time(sec)
-------------------------------------------------------------------------------------------
               ***  Starting incremental Fock matrix formation  ***
    1    -760.7474454571470233     0.00e+00  3.57e-03  9.09e-02  2.63e-01  0.700  10.1
    2    -760.9506466784623626    -2.03e-01  2.41e-03  5.20e-02  1.14e-01  0.700   5.4
                               ***Turning on AO-DIIS***
    3    -761.0321076940740568    -8.15e-02  1.00e-03  1.65e-02  3.52e-02  0.700   5.0
    4    -761.0810815526238002    -4.90e-02  1.76e-03  2.59e-02  1.85e-02  0.000   4.8
    5    -761.1876431133659935    -1.07e-01  3.38e-04  6.90e-03  5.97e-03  0.000   4.9
    6    -761.1882726945259492    -6.30e-04  1.10e-04  2.39e-03  2.34e-03  0.000   4.5
    7    -761.1883100702289084    -3.74e-05  3.97e-05  8.82e-04  5.90e-04  0.000   4.1
               *** Restarting incremental Fock matrix formation ***
                             ****Resetting DIIS****
    8    -761.1883636141162697    -5.35e-05  3.10e-05  7.52e-04  4.41e-04  0.000   9.6
    9    -761.1883628528178178     7.61e-07  1.41e-05  5.77e-04  7.88e-04  0.000   6.2
                              *** Initializing SOSCF ***
---------------------------------------S-O-S-C-F--------------------------------------
Iteration    Energy (Eh)           Delta-E    RMSDP     MaxDP     MaxGrad    Time(sec)
--------------------------------------------------------------------------------------
   10    -761.1883646478738683    -1.80e-06  2.88e-06  9.61e-05  9.71e-05     5.5
               *** Restarting incremental Fock matrix formation ***
   11    -761.1883646597420920    -1.19e-08  3.50e-06  1.19e-04  2.89e-05     9.5
   12    -761.1883646370938550     2.26e-08  2.15e-06  8.58e-05  5.75e-05     4.6
   13    -761.1883646811213566    -4.40e-08  6.07e-07  1.68e-05  4.78e-06     4.3
   14    -761.1883646644787405     1.66e-08  3.80e-07  1.11e-05  5.90e-06     3.6
   15    -761.1883646732148918    -8.74e-09  9.14e-08  2.02e-06  4.47e-07     3.3
                 **** Energy Check signals convergence ****

               *****************************************************
               *                     SUCCESS                       *
               *           SCF CONVERGED AFTER  15 CYCLES          *
               *****************************************************

Recomputing exchange energy using gridx3       ... done (   14.847 sec)
Old exchange energy                            :    -19.883611170 Eh
New exchange energy                            :    -19.883612457 Eh
Exchange energy change after final integration :     -0.000001287 Eh
Total energy after final integration           :   -761.188365964 Eh

SMD CDS free energy correction energy :                 5.75913     Kcal/mol
Total Energy after SMD CDS correction =              -761.179188203 Eh
             **** ENERGY FILE WAS UPDATED (/kaggle/working/Trp-OH-1/Trp-OH_InterFrag.en.tmp) ****

----------------
TOTAL SCF ENERGY
----------------

Total Energy       :       -761.17918820316584 Eh          -20712.73873 eV

Components:
Nuclear Repulsion  :       1096.66724942342853 Eh           29841.83299 eV
Electronic Energy  :      -1857.80478440901038 Eh          -50553.43827 eV
One Electron Energy:      -3215.82955343437288 Eh          -87507.17093 eV
Two Electron Energy:       1358.02476902536250 Eh           36953.73266 eV
CPCM Dielectric    :         -0.05082969086603 Eh              -1.38315 eV
SMD CDS (Gcds)     :          0.00917776074301 Eh               0.24974 eV

Virial components:
Potential Energy   :      -1517.80986886602454 Eh          -41301.70627 eV
Kinetic Energy     :        756.63068066285871 Eh           20588.96754 eV
Virial Ratio       :          2.00601152934523

DFT components:
N(Alpha)           :       58.000015258957 electrons
N(Beta)            :       58.000015258957 electrons
N(Total)           :      116.000030517914 electrons
E(X)               :      -79.006602645637 Eh       
E(C)               :       -4.704153474996 Eh       
E(XC)              :      -83.710756120633 Eh       

CPCM Solvation Model Properties:
Surface-charge          :         -0.03619145164636
Corrected charge        :          0.00000000000000
Outlying charge corr.   :          0.00008381429731 Eh               0.00228 eV
Free-energy (cav+disp)  :          0.00917776074301 Eh               0.24974 eV

---------------
SCF CONVERGENCE
---------------

  Last Energy change         ...    8.7362e-09  Tolerance :   1.0000e-08
  Last MAX-Density change    ...    2.0219e-06  Tolerance :   1.0000e-07
  Last RMS-Density change    ...    9.1374e-08  Tolerance :   5.0000e-09
  Last DIIS Error            ...    9.7124e-05  Tolerance :   5.0000e-07
  Last Orbital Gradient      ...    4.4681e-07  Tolerance :   1.0000e-05
  Last Orbital Rotation      ...    1.1391e-06  Tolerance :   1.0000e-05


----------------
ORBITAL ENERGIES
----------------

  NO   OCC          E(Eh)            E(eV) 
   0   2.0000     -19.186102      -522.0804 
   1   2.0000     -19.159485      -521.3561 
   2   2.0000     -19.137989      -520.7711 
   3   2.0000     -14.357429      -390.6855 
   4   2.0000     -14.300912      -389.1476 
   5   2.0000     -10.316515      -280.7267 
   6   2.0000     -10.229926      -278.3704 
   7   2.0000     -10.214427      -277.9487 
   8   2.0000     -10.200118      -277.5593 
   9   2.0000     -10.197990      -277.5014 
  10   2.0000     -10.179706      -277.0039 
  11   2.0000     -10.178123      -276.9608 
  12   2.0000     -10.170612      -276.7564 
  13   2.0000     -10.168226      -276.6915 
  14   2.0000     -10.167535      -276.6727 
  15   2.0000     -10.161047      -276.4962 
  16   2.0000      -1.092719       -29.7344 
  17   2.0000      -1.044636       -28.4260 
  18   2.0000      -1.008178       -27.4339 
  19   2.0000      -0.969087       -26.3702 
  20   2.0000      -0.881101       -23.9760 
  21   2.0000      -0.829740       -22.5784 
  22   2.0000      -0.792660       -21.5694 
  23   2.0000      -0.737758       -20.0754 
  24   2.0000      -0.720767       -19.6131 
  25   2.0000      -0.705668       -19.2022 
  26   2.0000      -0.665129       -18.0991 
  27   2.0000      -0.625634       -17.0244 
  28   2.0000      -0.586711       -15.9652 
  29   2.0000      -0.578604       -15.7446 
  30   2.0000      -0.546661       -14.8754 
  31   2.0000      -0.536497       -14.5988 
  32   2.0000      -0.514353       -13.9963 
  33   2.0000      -0.502441       -13.6721 
  34   2.0000      -0.477251       -12.9867 
  35   2.0000      -0.475805       -12.9473 
  36   2.0000      -0.464563       -12.6414 
  37   2.0000      -0.445494       -12.1225 
  38   2.0000      -0.436668       -11.8823 
  39   2.0000      -0.424928       -11.5629 
  40   2.0000      -0.419963       -11.4278 
  41   2.0000      -0.415447       -11.3049 
  42   2.0000      -0.414135       -11.2692 
  43   2.0000      -0.393213       -10.6999 
  44   2.0000      -0.387509       -10.5446 
  45   2.0000      -0.385113       -10.4795 
  46   2.0000      -0.374535       -10.1916 
  47   2.0000      -0.362657        -9.8684 
  48   2.0000      -0.355580        -9.6758 
  49   2.0000      -0.347358        -9.4521 
  50   2.0000      -0.323944        -8.8150 
  51   2.0000      -0.316282        -8.6065 
  52   2.0000      -0.299961        -8.1623 
  53   2.0000      -0.275950        -7.5090 
  54   2.0000      -0.264853        -7.2070 
  55   2.0000      -0.233880        -6.3642 
  56   2.0000      -0.203196        -5.5292 
  57   2.0000      -0.187893        -5.1128 
  58   0.0000      -0.008041        -0.2188 
  59   0.0000       0.003337         0.0908 
  60   0.0000       0.047280         1.2866 
  61   0.0000       0.072010         1.9595 
  62   0.0000       0.098580         2.6825 
  63   0.0000       0.103451         2.8150 
  64   0.0000       0.107774         2.9327 
  65   0.0000       0.119801         3.2600 
  66   0.0000       0.125070         3.4033 
  67   0.0000       0.144685         3.9371 
  68   0.0000       0.156641         4.2624 
  69   0.0000       0.167687         4.5630 
  70   0.0000       0.181209         4.9309 
  71   0.0000       0.183857         5.0030 
  72   0.0000       0.191574         5.2130 
  73   0.0000       0.195425         5.3178 
  74   0.0000       0.200991         5.4692 
  75   0.0000       0.213021         5.7966 
  76   0.0000       0.252865         6.8808 
  77   0.0000       0.261375         7.1124 
  78   0.0000       0.268821         7.3150 
  79   0.0000       0.278445         7.5769 
  80   0.0000       0.287110         7.8127 
  81   0.0000       0.292569         7.9612 
  82   0.0000       0.308300         8.3893 
  83   0.0000       0.325725         8.8634 
  84   0.0000       0.352495         9.5919 
  85   0.0000       0.361725         9.8430 
  86   0.0000       0.377491        10.2721 
  87   0.0000       0.380544        10.3551 
  88   0.0000       0.420020        11.4293 
  89   0.0000       0.470360        12.7991 
  90   0.0000       0.493346        13.4246 
  91   0.0000       0.502349        13.6696 
  92   0.0000       0.520700        14.1690 
  93   0.0000       0.530749        14.4424 
  94   0.0000       0.539807        14.6889 
  95   0.0000       0.547398        14.8955 
  96   0.0000       0.550923        14.9914 
  97   0.0000       0.567648        15.4465 
  98   0.0000       0.576718        15.6933 
  99   0.0000       0.592125        16.1126 
 100   0.0000       0.608500        16.5581 
 101   0.0000       0.613293        16.6885 
 102   0.0000       0.616410        16.7734 
 103   0.0000       0.619667        16.8620 
 104   0.0000       0.625248        17.0139 
 105   0.0000       0.634971        17.2784 
 106   0.0000       0.640874        17.4391 
 107   0.0000       0.647989        17.6327 
 108   0.0000       0.656455        17.8630 
 109   0.0000       0.660965        17.9858 
 110   0.0000       0.686128        18.6705 
 111   0.0000       0.692751        18.8507 
 112   0.0000       0.698089        18.9960 
 113   0.0000       0.729397        19.8479 
 114   0.0000       0.742604        20.2073 
 115   0.0000       0.749324        20.3901 
 116   0.0000       0.753773        20.5112 
 117   0.0000       0.781758        21.2727 
 118   0.0000       0.794032        21.6067 
 119   0.0000       0.802971        21.8500 
 120   0.0000       0.806066        21.9342 
 121   0.0000       0.818939        22.2844 
 122   0.0000       0.823508        22.4088 
 123   0.0000       0.830059        22.5871 
 124   0.0000       0.838555        22.8182 
 125   0.0000       0.860911        23.4266 
 126   0.0000       0.870145        23.6779 
 127   0.0000       0.874549        23.7977 
 128   0.0000       0.878779        23.9128 
 129   0.0000       0.888714        24.1831 
 130   0.0000       0.897218        24.4145 
 131   0.0000       0.907367        24.6907 
 132   0.0000       0.916154        24.9298 
 133   0.0000       0.935648        25.4603 
 134   0.0000       0.945530        25.7292 
 135   0.0000       0.948423        25.8079 
 136   0.0000       0.966127        26.2896 
 137   0.0000       0.973827        26.4992 
 138   0.0000       0.981932        26.7197 
 139   0.0000       0.988650        26.9025 
 140   0.0000       1.014017        27.5928 
 141   0.0000       1.019478        27.7414 
 142   0.0000       1.042234        28.3606 
 143   0.0000       1.055924        28.7332 
 144   0.0000       1.065906        29.0048 
 145   0.0000       1.079582        29.3769 
 146   0.0000       1.095581        29.8123 
 147   0.0000       1.110736        30.2247 
 148   0.0000       1.138487        30.9798 
 149   0.0000       1.149982        31.2926 
 150   0.0000       1.159041        31.5391 
 151   0.0000       1.175276        31.9809 
 152   0.0000       1.218869        33.1671 
 153   0.0000       1.240939        33.7677 
 154   0.0000       1.245898        33.9026 
 155   0.0000       1.281252        34.8646 
 156   0.0000       1.300599        35.3911 
 157   0.0000       1.326712        36.1017 
 158   0.0000       1.335511        36.3411 
 159   0.0000       1.339115        36.4392 
 160   0.0000       1.365324        37.1523 
 161   0.0000       1.372246        37.3407 
 162   0.0000       1.381227        37.5851 
 163   0.0000       1.399234        38.0751 
 164   0.0000       1.402689        38.1691 
 165   0.0000       1.411109        38.3982 
 166   0.0000       1.433904        39.0185 
 167   0.0000       1.443558        39.2812 
 168   0.0000       1.467420        39.9305 
 169   0.0000       1.481421        40.3115 
 170   0.0000       1.498903        40.7872 
 171   0.0000       1.513138        41.1746 
 172   0.0000       1.573141        42.8073 
 173   0.0000       1.601799        43.5872 
 174   0.0000       1.604656        43.6649 
 175   0.0000       1.622554        44.1519 
 176   0.0000       1.646136        44.7937 
 177   0.0000       1.698660        46.2229 
 178   0.0000       1.720726        46.8233 
 179   0.0000       1.745621        47.5008 
 180   0.0000       1.753338        47.7108 
 181   0.0000       1.772249        48.2253 
 182   0.0000       1.781089        48.4659 
 183   0.0000       1.784482        48.5582 
 184   0.0000       1.806902        49.1683 
 185   0.0000       1.833139        49.8823 
 186   0.0000       1.846477        50.2452 
 187   0.0000       1.855192        50.4823 
 188   0.0000       1.860999        50.6404 
 189   0.0000       1.869667        50.8762 
 190   0.0000       1.889271        51.4097 
 191   0.0000       1.891531        51.4712 
 192   0.0000       1.892709        51.5032 
 193   0.0000       1.911359        52.0107 
 194   0.0000       1.918653        52.2092 
 195   0.0000       1.929031        52.4916 
 196   0.0000       1.943377        52.8820 
 197   0.0000       1.955234        53.2046 
 198   0.0000       1.967382        53.5352 
 199   0.0000       1.989085        54.1258 
 200   0.0000       1.992332        54.2141 
 201   0.0000       2.011941        54.7477 
 202   0.0000       2.034733        55.3679 
 203   0.0000       2.047778        55.7229 
 204   0.0000       2.062749        56.1303 
 205   0.0000       2.067758        56.2666 
 206   0.0000       2.097978        57.0889 
 207   0.0000       2.124953        57.8229 
 208   0.0000       2.139363        58.2150 
 209   0.0000       2.148226        58.4562 
 210   0.0000       2.180303        59.3291 
 211   0.0000       2.210860        60.1606 
 212   0.0000       2.216184        60.3054 
 213   0.0000       2.232666        60.7539 
 214   0.0000       2.240803        60.9753 
 215   0.0000       2.267329        61.6971 
 216   0.0000       2.270432        61.7816 
 217   0.0000       2.288221        62.2657 
 218   0.0000       2.291634        62.3585 
 219   0.0000       2.315987        63.0212 
 220   0.0000       2.328624        63.3651 
 221   0.0000       2.329759        63.3960 
 222   0.0000       2.355134        64.0864 
 223   0.0000       2.376500        64.6678 
 224   0.0000       2.381353        64.7999 
 225   0.0000       2.394858        65.1674 
 226   0.0000       2.420307        65.8599 
 227   0.0000       2.423266        65.9404 
 228   0.0000       2.430983        66.1504 
 229   0.0000       2.436450        66.2992 
 230   0.0000       2.464344        67.0582 
 231   0.0000       2.476179        67.3803 
 232   0.0000       2.487693        67.6936 
 233   0.0000       2.513988        68.4091 
 234   0.0000       2.523709        68.6736 
 235   0.0000       2.546275        69.2877 
 236   0.0000       2.550143        69.3929 
 237   0.0000       2.559324        69.6427 
 238   0.0000       2.582385        70.2703 
 239   0.0000       2.587511        70.4098 
 240   0.0000       2.598406        70.7062 
 241   0.0000       2.608649        70.9850 
 242   0.0000       2.624318        71.4113 
 243   0.0000       2.641909        71.8900 
 244   0.0000       2.656769        72.2944 
 245   0.0000       2.666099        72.5482 
 246   0.0000       2.681162        72.9581 
 247   0.0000       2.704626        73.5966 
 248   0.0000       2.728302        74.2409 
 249   0.0000       2.732317        74.3501 
 250   0.0000       2.735528        74.4375 
 251   0.0000       2.764749        75.2327 
 252   0.0000       2.793393        76.0121 
 253   0.0000       2.796523        76.0973 
 254   0.0000       2.804405        76.3117 
 255   0.0000       2.808546        76.4244 
 256   0.0000       2.828808        76.9758 
 257   0.0000       2.859785        77.8187 
 258   0.0000       2.880002        78.3688 
 259   0.0000       2.890309        78.6493 
 260   0.0000       2.912195        79.2449 
 261   0.0000       2.930923        79.7545 
 262   0.0000       2.963046        80.6286 
 263   0.0000       2.999212        81.6127 
 264   0.0000       3.024371        82.2973 
 265   0.0000       3.063062        83.3502 
 266   0.0000       3.072392        83.6040 
 267   0.0000       3.127988        85.1169 
 268   0.0000       3.174293        86.3769 
 269   0.0000       3.197882        87.0188 
 270   0.0000       3.248227        88.3887 
 271   0.0000       3.300548        89.8125 
 272   0.0000       3.315924        90.2309 
 273   0.0000       3.338685        90.8502 
 274   0.0000       3.367275        91.6282 
 275   0.0000       3.418617        93.0253 
 276   0.0000       3.444519        93.7301 
 277   0.0000       3.466172        94.3193 
 278   0.0000       3.510380        95.5223 
 279   0.0000       3.512861        95.5898 
 280   0.0000       3.529651        96.0467 
 281   0.0000       3.543587        96.4259 
 282   0.0000       3.794104       103.2428 
 283   0.0000       3.832260       104.2811 

                    ********************************
                    * MULLIKEN POPULATION ANALYSIS *
                    ********************************

-----------------------
MULLIKEN ATOMIC CHARGES
-----------------------
   0 O :   -0.591960
   1 O :   -0.507347
   2 O :   -0.514318
   3 N :   -0.540225
   4 N :   -0.638158
   5 C :   -0.012166
   6 C :   -0.242500
   7 C :    0.069048
   8 C :    0.011466
   9 C :    0.210102
  10 C :    0.018605
  11 C :   -0.256711
  12 C :   -0.129882
  13 C :    0.303869
  14 C :   -0.172567
  15 C :    0.571336
  16 H :    0.118861
  17 H :    0.127184
  18 H :    0.121025
  19 H :    0.145011
  20 H :    0.304501
  21 H :    0.111400
  22 H :    0.119248
  23 H :    0.104850
  24 H :    0.266016
  25 H :    0.266430
  26 H :    0.365492
  27 H :    0.371393
Sum of atomic charges:   -0.0000000

--------------------------------
MULLIKEN REDUCED ORBITAL CHARGES
--------------------------------
  0 O s       :     3.830775  s :     3.830775
      pz      :     1.770678  p :     4.738304
      px      :     1.609568
      py      :     1.358059
      dz2     :     0.002651  d :     0.022880
      dxz     :     0.003450
      dyz     :     0.003734
      dx2y2   :     0.006482
      dxy     :     0.006563

  1 O s       :     3.827513  s :     3.827513
      pz      :     1.422877  p :     4.658821
      px      :     1.637069
      py      :     1.598875
      dz2     :     0.004521  d :     0.021013
      dxz     :     0.003534
      dyz     :     0.005730
      dx2y2   :     0.003643
      dxy     :     0.003585

  2 O s       :     3.849673  s :     3.849673
      pz      :     1.670915  p :     4.639070
      px      :     1.549350
      py      :     1.418804
      dz2     :     0.003238  d :     0.025575
      dxz     :     0.001032
      dyz     :     0.007240
      dx2y2   :     0.006289
      dxy     :     0.007777

  3 N s       :     3.598343  s :     3.598343
      pz      :     1.520967  p :     3.905342
      px      :     1.183677
      py      :     1.200698
      dz2     :     0.003277  d :     0.036540
      dxz     :     0.006993
      dyz     :     0.006243
      dx2y2   :     0.009577
      dxy     :     0.010449

  4 N s       :     3.612049  s :     3.612049
      pz      :     1.394948  p :     3.997601
      px      :     1.103721
      py      :     1.498932
      dz2     :     0.003090  d :     0.028509
      dxz     :     0.010473
      dyz     :     0.003769
      dx2y2   :     0.005010
      dxy     :     0.006166

  5 C s       :     3.134538  s :     3.134538
      pz      :     1.033107  p :     2.835589
      px      :     0.902421
      py      :     0.900061
      dz2     :     0.004429  d :     0.042039
      dxz     :     0.006449
      dyz     :     0.007487
      dx2y2   :     0.011693
      dxy     :     0.011981

  6 C s       :     3.227816  s :     3.227816
      pz      :     0.974349  p :     2.975789
      px      :     0.961980
      py      :     1.039459
      dz2     :     0.003925  d :     0.038895
      dxz     :     0.009928
      dyz     :     0.010890
      dx2y2   :     0.006933
      dxy     :     0.007219

  7 C s       :     3.140324  s :     3.140324
      pz      :     0.997405  p :     2.746795
      px      :     0.893704
      py      :     0.855687
      dz2     :     0.004696  d :     0.043833
      dxz     :     0.006802
      dyz     :     0.008324
      dx2y2   :     0.010029
      dxy     :     0.013981

  8 C s       :     3.181802  s :     3.181802
      pz      :     0.962374  p :     2.750005
      px      :     0.847259
      py      :     0.940371
      dz2     :     0.006220  d :     0.056727
      dxz     :     0.012352
      dyz     :     0.015263
      dx2y2   :     0.011987
      dxy     :     0.010905

  9 C s       :     3.065061  s :     3.065061
      pz      :     1.019330  p :     2.666326
      px      :     0.865213
      py      :     0.781783
      dz2     :     0.006153  d :     0.058511
      dxz     :     0.008308
      dyz     :     0.010783
      dx2y2   :     0.016073
      dxy     :     0.017195

 10 C s       :     3.124429  s :     3.124429
      pz      :     1.002074  p :     2.805386
      px      :     0.797629
      py      :     1.005683
      dz2     :     0.007513  d :     0.051580
      dxz     :     0.009692
      dyz     :     0.005325
      dx2y2   :     0.016394
      dxy     :     0.012656

 11 C s       :     3.184097  s :     3.184097
      pz      :     1.072279  p :     3.039554
      px      :     0.931251
      py      :     1.036024
      dz2     :     0.002744  d :     0.033060
      dxz     :     0.005061
      dyz     :     0.005786
      dx2y2   :     0.009157
      dxy     :     0.010312

 12 C s       :     3.175232  s :     3.175232
      pz      :     1.013001  p :     2.919665
[...]
 5 C  dx2y2           1.0       0.1
 5 C  dxy             2.4       0.2
 6 C  px              0.2       0.0
 6 C  dx2y2           0.7       0.0
 7 C  px              0.2       0.0
 7 C  dyz             0.0       0.7
 7 C  dx2y2           0.1       1.8
 7 C  dxy             0.0       2.5
 9 C  s               0.2       0.1
 9 C  dz2             0.5       0.0
 9 C  dxz             0.0       0.9
 9 C  dyz             0.2       0.1
 9 C  dx2y2           0.4       5.0
 9 C  dxy             3.2       0.5
10 C  s               1.6       0.1
10 C  px              0.8       0.0
10 C  py              0.8       0.1
10 C  dz2             3.0       0.1
10 C  dxz             0.2       0.0
10 C  dx2y2           2.1       0.0
10 C  dxy            13.9       1.1
11 C  s               0.0       0.3
11 C  pz              0.0       0.1
11 C  px              0.1       0.5
11 C  py              0.0       0.2
11 C  dxz             0.0       0.9
11 C  dyz             0.0       1.0
11 C  dxy             0.2       7.7
12 C  s               0.3       0.2
12 C  pz              0.0       0.2
12 C  px              0.1       0.6
12 C  py              0.2       0.5
12 C  dxz             0.5       1.4
12 C  dyz             0.0       1.4
12 C  dx2y2           0.9       0.1
12 C  dxy             0.5      10.2
13 C  py              0.0       0.1
13 C  dxz             0.0       0.8
13 C  dyz             0.0       0.1
13 C  dx2y2           0.4       5.4
13 C  dxy             0.0       0.8
14 C  s               0.1       0.3
14 C  px              0.1       0.9
14 C  py              0.1       0.2
14 C  dz2             0.1       0.5
14 C  dxz             0.1       0.3
14 C  dyz             0.1       1.3
14 C  dx2y2           0.8       5.7
14 C  dxy             0.3       5.9
16 H  pz              0.1       0.0
19 H  s               4.7       0.2
19 H  px              3.5       0.0
19 H  py             10.5       0.6
20 H  s               6.1       0.9
20 H  pz              1.3       0.2
20 H  px              2.6       0.2
20 H  py              7.8       1.4
21 H  s               0.1       1.8
21 H  pz              0.0       0.7
21 H  px              0.1       2.4
21 H  py              0.2       2.1
22 H  s               0.2       2.5
22 H  pz              0.1       1.0
22 H  px              0.1       3.8
22 H  py              0.5       2.0
23 H  s               0.3       2.5
23 H  pz              0.0       0.3
23 H  px              0.7       5.8
23 H  py              0.2       0.9
26 H  s               0.1       0.9
26 H  pz              0.0       0.2
26 H  px              0.1       0.7
26 H  py              0.0       0.3


                      *****************************
                      * MAYER POPULATION ANALYSIS *
                      *****************************

  NA   - Mulliken gross atomic population
  ZA   - Total nuclear charge
  QA   - Mulliken gross atomic charge
  VA   - Mayer's total valence
  BVA  - Mayer's bonded valence
  FA   - Mayer's free valence

  ATOM       NA         ZA         QA         VA         BVA        FA
  0 O      8.5996     8.0000    -0.5996     1.9145     1.9145    -0.0000
  1 O      8.4923     8.0000    -0.4923     2.0354     2.0354    -0.0000
  2 O      8.5175     8.0000    -0.5175     2.0098     2.0098    -0.0000
  3 N      7.5410     7.0000    -0.5410     3.1915     3.1915     0.0000
  4 N      7.6314     7.0000    -0.6314     2.8208     2.8208    -0.0000
  5 C      5.9999     6.0000     0.0001     3.9286     3.9286     0.0000
  6 C      6.2432     6.0000    -0.2432     3.8638     3.8638     0.0000
  7 C      5.9624     6.0000     0.0376     4.0480     4.0480     0.0000
  8 C      5.9919     6.0000     0.0081     3.8304     3.8304     0.0000
  9 C      5.7831     6.0000     0.2169     3.8165     3.8165    -0.0000
 10 C      5.9848     6.0000     0.0152     3.7644     3.7644    -0.0000
 11 C      6.2352     6.0000    -0.2352     3.8371     3.8371     0.0000
 12 C      6.1299     6.0000    -0.1299     3.8815     3.8815    -0.0000
 13 C      5.7128     6.0000     0.2872     3.8416     3.8416     0.0000
 14 C      6.1653     6.0000    -0.1653     3.9077     3.9077    -0.0000
 15 C      5.4307     6.0000     0.5693     3.9274     3.9274    -0.0000
 16 H      0.8796     1.0000     0.1204     0.9553     0.9553     0.0000
 17 H      0.8717     1.0000     0.1283     0.9517     0.9517     0.0000
 18 H      0.8848     1.0000     0.1152     0.9513     0.9513     0.0000
 19 H      0.8589     1.0000     0.1411     0.9531     0.9531     0.0000
 20 H      0.6915     1.0000     0.3085     0.8977     0.8977     0.0000
 21 H      0.8874     1.0000     0.1126     0.9695     0.9695     0.0000
 22 H      0.8811     1.0000     0.1189     0.9535     0.9535     0.0000
 23 H      0.8939     1.0000     0.1061     0.9607     0.9607    -0.0000
 24 H      0.7309     1.0000     0.2691     0.9064     0.9064    -0.0000
 25 H      0.7286     1.0000     0.2714     0.9078     0.9078     0.0000
 26 H      0.6381     1.0000     0.3619     0.8700     0.8700    -0.0000
 27 H      0.6325     1.0000     0.3675     0.8802     0.8802    -0.0000

  Mayer bond orders larger than 0.100000
B(  0-O , 13-C ) :   0.9357 B(  0-O , 26-H ) :   0.8504 B(  1-O , 15-C ) :   1.1135 
B(  1-O , 27-H ) :   0.8260 B(  2-O , 15-C ) :   1.8488 B(  3-N ,  9-C ) :   1.0285 
B(  3-N , 10-C ) :   1.1163 B(  3-N , 20-H ) :   0.8743 B(  4-N ,  8-C ) :   0.9964 
B(  4-N , 24-H ) :   0.8986 B(  4-N , 25-H ) :   0.8948 B(  5-C ,  6-C ) :   1.0005 
B(  5-C ,  7-C ) :   1.2650 B(  5-C , 10-C ) :   1.5354 B(  6-C ,  8-C ) :   0.9595 
B(  6-C , 16-H ) :   0.9334 B(  6-C , 17-H ) :   0.9374 B(  7-C ,  9-C ) :   1.2855 
B(  7-C , 11-C ) :   1.3083 B(  8-C , 15-C ) :   0.9267 B(  8-C , 18-H ) :   0.9312 
B(  9-C , 12-C ) :   1.3533 B( 10-C , 19-H ) :   0.9386 B( 11-C , 13-C ) :   1.4275 
B( 11-C , 21-H ) :   0.9181 B( 12-C , 14-C ) :   1.4749 B( 12-C , 22-H ) :   0.9320 
B( 13-C , 14-C ) :   1.3331 B( 14-C , 23-H ) :   0.9337 

-------
TIMINGS
-------

Total SCF time: 0 days 0 hours 1 min 5 sec 

Total time                  ....      65.565 sec
Sum of individual times     ....      61.882 sec  ( 94.4%)

SCF preparation             ....       0.625 sec  (  1.0%)
Fock matrix formation       ....      60.549 sec  ( 92.3%)
  Startup                   ....       0.007 sec  (  0.0% of F)
  Split-RI-J                ....       4.533 sec  (  7.5% of F)
  Chain of spheres X        ....      48.261 sec  ( 79.7% of F)
  XC integration            ....       6.247 sec  ( 10.3% of F)
    Basis function eval.    ....       2.368 sec  ( 37.9% of XC)
    Density eval.           ....       1.523 sec  ( 24.4% of XC)
    XC-Functional eval.     ....       0.304 sec  (  4.9% of XC)
    XC-Potential eval.      ....       1.734 sec  ( 27.8% of XC)
  CPCM terms                ....       5.037 sec  (  8.3% of F)
Diagonalization             ....       0.000 sec  (  0.0%)
Density matrix formation    ....       0.027 sec  (  0.0%)
Total Energy calculation    ....       0.016 sec  (  0.0%)
Population analysis         ....       0.396 sec  (  0.6%)
Orbital Transformation      ....       0.039 sec  (  0.1%)
Orbital Orthonormalization  ....       0.000 sec  (  0.0%)
DIIS solution               ....       0.174 sec  (  0.3%)
  MO trafo                  ....       0.020 sec  ( 11.2 % of DIIS)
  Orb grad                  ....       0.000 sec  (  0.0 % of DIIS)
  Energy W gradient         ....       0.000 sec  (  0.0 % of DIIS)
  DIIS error                ....       0.035 sec  ( 20.0 % of DIIS)
  DIIS work                 ....       0.095 sec  ( 54.6 % of DIIS)
  Form Q                    ....       0.000 sec  (  0.0 % of DIIS)
  Form QpQm                 ....       0.000 sec  (  0.0 % of DIIS)
  Exp/Cayley                ....       0.000 sec  (  0.0 % of DIIS)
  Orb update                ....       0.000 sec  (  0.0 % of DIIS)
  Wake-sleep                ....       0.005 sec  (  3.0 % of DIIS)
SOSCF solution              ....       0.055 sec  (  0.1%)
  MO trafo                  ....       0.027 sec  ( 48.9 % of SOSCF)
  Orb grad                  ....       0.001 sec  (  2.2 % of SOSCF)
  Rot update                ....       0.002 sec  (  3.7 % of SOSCF)
  Step                      ....       0.022 sec  ( 40.1 % of SOSCF)
Finished LeanSCF after  65.7 sec

Maximum memory used throughout the entire LEANSCF-calculation: 50.3 MB


-------------------------------------------------------------------------------
                          DFT DISPERSION CORRECTION                            
                                                                               
                              DFTD3 V3.1  Rev 1                                
                          USING Becke-Johnson damping                          
-------------------------------------------------------------------------------
The B3LYP functional is recognized
Active option DFTDOPT                   ...         4   

molecular C6(AA) [au] = 8445.452760 


            DFT-D V3
 parameters
 s6 scaling factor         :     1.0000 
 a1 scaling factor         :     0.3981 
 s8 scaling factor         :     1.9889 
 a2 scaling factor         :     4.4211 
 ad hoc parameters k1-k3   :    16.0000     1.3333    -4.0000 

 Edisp/kcal,au: -36.034558577743  -0.057424718229 
 E6   /kcal   : -17.054674427 
 E8   /kcal   : -18.979884151 
 % E8         :  52.671338015 

-------------------------   ----------------
Dispersion correction           -0.057424718
-------------------------   ----------------


-------------------------   --------------------
FINAL SINGLE POINT ENERGY      -761.243377236824
-------------------------   --------------------

                                *** OPTIMIZATION RUN DONE ***



           ************************************************************
           *        Program running with 2 parallel MPI-processes     *
           *              working on a common directory               *
           ************************************************************

------------------------------------------------------------------------------
                              ORCA PROPERTY CALCULATIONS
------------------------------------------------------------------------------

GBWName                                 ... /kaggle/working/Trp-OH-1/Trp-OH_InterFrag.gbw
Number of atoms                         ...     28
Number of basis functions               ...    284
Max core memory                         ...   3000 MB

Electric properties:
Dipole moment                           ... YES
Quadrupole moment                       ...  NO
Static polarizability (Dipole/Dipole)   ...  NO
Static polarizability (Dipole/Quad.)    ...  NO
Static polarizability (Quad./Quad.)     ...  NO
Static polarizability (Velocity)        ...  NO
Static hyperpolarizability              ...  NO

Atomic electric properties:
Dipole moment                           ...  NO
Quadrupole moment                       ...  NO
Static polarizability                   ...  NO

Choice of electric origin               ... Center of mass
Position of electric origin             ...     0.148040    -0.120406     0.016896

General magnetic properties:
Magnetizability                         ...  NO

EPR properties:
g-Tensor (aka g-matrix)                 ...  NO
Zero-Field splitting spin-orbit         ...  NO
Zero-field splitting spin-spin          ...  NO
Hyperfine couplings                     ...  NO (   0 nuclei)
Quadrupole couplings                    ...  NO (   0 nuclei)
Contact density                         ...  NO (   0 nuclei)

NMR properties:
Chemical shifts                         ...  NO (   0 nuclei)
Spin-rotation constants                 ...  NO (   0 nuclei)
Spin-spin couplings                     ...  NO (   0 nuclei,    0 pairs)

Choice of magnetic origin               ... GIAO
Position of magnetic origin             ...     0.000000     0.000000     0.000000

Properties with geometric perturbations:
SCF Hessian                             ...  NO
IR spectrum                             ...  NO
VCD spectrum                            ...  NO
X-ray spectroscopy properties:
SCF XES/XAS/RIXS spectra                ...  NO

SCF SOC stabilization energy            ...  NO
Diagonal Born-Oppenheimer correction    ...  NO

-------------
DIPOLE MOMENT
-------------

Method             : SCF
Type of density    : Electron Density
Multiplicity       :   1
Irrep              :   0
Energy             :  -761.1859525185955135 Eh
Basis              : AO
                                X                 Y                 Z
Electronic contribution:     -4.667602494      -1.823654820       2.144654492
Nuclear contribution   :      5.203462123       4.212433830      -1.207266291
                        -----------------------------------------
Total Dipole Moment    :      0.535859630       2.388779010       0.937388200
                        -----------------------------------------
Magnitude (a.u.)       :      2.621470454
Magnitude (Debye)      :      6.663248357



--------------------
Rotational spectrum 
--------------------
 
Rotational constants in cm-1:             0.026890             0.013794             0.010306 
Rotational constants in MHz :           806.140760           413.521589           308.959368 

Dipole components along the rotational axes: 
x,y,z [a.u.] :     0.543825    -2.376022     0.964823 
x,y,z [Debye]:     1.382294    -6.039367     2.452385 

 

Dipole moment calculation done in   0.0 sec 

Maximum memory used throughout the entire PROP-calculation: 17.9 MB

--------------------------------
SUGGESTED CITATIONS FOR THIS RUN
--------------------------------

Below you find a list of papers that are relevant to this ORCA run
We neither can nor want to force you to cite these papers, but we appreciate if you do
You receive ORCA, which is the product of decades of hard work by many enthusiastic individuals, for free
The only thing we kindly ask in return is that you cite our papers,
We deeply appreciate it, if you show your appreciation for ORCA by not just citing the generic ORCA reference.

Please note that relegating all ORCA citations to the supporting information does *not* help us.
SI sections are not indexed - citations you put there will not count into any citation statistics
But we need these citations in order to attract the funding resources that allow us to do what we are doing

Therefore, if you are a happy ORCA user, please consider citing a few of the papers listed below in the main body of your paper

In addition to the list printed below, the program has created the file /kaggle/working/Trp-OH-1/Trp-OH_InterFrag.bibtex that contains the list in bibtex format
You can import this file easily into all common literature databanks and citation aid programs

It goes without saying that in many instances, there are alternative algorithms to achieve similar
results as the ones you have gotten from ORCA. It is, of course, also the case that in some instances
ORCA just re-implements algorithms worked out by others. We are fully aware of that and we are also
fully appreciative of our colleagues work. Hence this citation list should not be read as indicating
that the listed papers, which are focused on our own work, are the only ones worth citing. It simply
meant to make it easier for users to cite ORCA specific papers. It is not a substitute for doing your
own literature research and citing the relevant literature in a scientifically appropriate manner.

List of essential papers. We consider these as the minimum necessary citations

  1. Neese, F.
     Software update: the ORCA program system, version 6.0
     WIRES Comput. Molec. Sci. 2025 15(1), e70019
     doi.org/10.1002/wcms.70019

List of papers to cite with high priority. The work reported in these papers was absolutely
necessary for this run to complete.
Our perspective: the developers of density functionals and basis sets usually get cited in chemistry papers
Good! But without the algorithms to do something with them, the functionals or basis sets would not do anything.
Hence, in our opinion, the algorithm design and method developments papers are equally worthy of getting cited

  1. Neese, F.
     An improvement of the resolution of the identity approximation for the formation of the Coulomb matrix
     J. Comp. Chem. 2003 24(14), 1740-1747
     doi.org/10.1002/jcc.10318
  2. Neese, F.; Wennmohs, F.; Hansen, A.; Becker, U.
     Efficient, approximate and parallel Hartree-Fock and hybrid DFT calculations. A 'chain-of-spheres' algorithm for the Hartree-Fock exchange
     Chem. Phys. 2009 356(1-3), 98-109
     doi.org/10.1016/j.chemphys.2008.10.036
  3. Grimme, S.; Antony, J.; Ehrlich, S.; Krieg, H.
     A consistent and accurate ab initio parametrization of density functional dispersion correction (DFT-D) for the 94 elements H-Pu
     J. Chem. Phys. 2010 132 , 154104
     doi.org/10.1063/1.3382344
  4. Grimme, S.; Ehrlich, S.; Goerigk, L.
     Effect of the damping function in dispersion corrected density functional theory
     J. Comput. Chem. 2011 32(7), 1456-1465
     doi.org/10.1002/jcc.21759
  5. Garcia-Rates, M.; Neese, F.
     Effect of the Solute Cavity on the Solvation Energy and its Derivatives within the Framework of the Gaussian Charge Scheme
     J. Comput. Chem. 2020 41 , 922-939
     doi.org/10.1002/jcc.26139
  6. Helmich-Paris, B.; de Souza, B.; Neese, F.; Izsák, R.
     An improved chain of spheres for exchange algorithm
     J. Chem. Phys. 2021 155(10), 104109
     doi.org/10.1063/5.0058766
  7. Neese, F.
     The SHARK Integral Generation and Digestion System
     J. Comp. Chem. 2022 44(3), 381
     doi.org/10.1002/jcc.26942

List of suggested additional citations. These are papers that are important in the 'surrounding' of 
of this run, or papers that preceded the highly important papers. If you like your results we are grateful for a citation.

  1. Izsak, R.; Neese, F.
     An overlap fitted chain of spheres exchange method
     J. Chem. Phys. 2011 135 , 144105
     doi.org/10.1063/1.3646921
  2. Izsak, R.; Hansen, A.; Neese, F.
     The resolution of identity and chain of spheres approximations for the LPNO-CCSD singles Fock term
     Molec. Phys. 2012 110 , 2413-2417
     doi.org/10.1080/00268976.2012.687466
  3. Neese, F.
     The ORCA program system
     WIRES Comput. Molec. Sci. 2012 2(1), 73-78
     doi.org/10.1002/wcms.81
  4. Izsak, R.; Neese, F.; Klopper, W.
     Robust fitting techniques in the chain of spheres approximation to the Fock exchange: The role of the complementary space
     J. Chem. Phys. 2013 139 , 
     doi.org/10.1063/1.4819264
  5. Neese, F.
     Software update: the ORCA program system, version 4.0
     WIRES Comput. Molec. Sci. 2018 8(1), 1-6
     doi.org/10.1002/wcms.1327
  6. Neese, F.; Wennmohs, F.; Becker, U.; Riplinger, C.
     The ORCA quantum chemistry program package
     J. Chem. Phys. 2020 152(22), 224108
     doi.org/10.1063/5.0004608
  7. Neese, F.
     Software update: The ORCA program system—Version 5.0
     WIRES Comput. Molec. Sci. 2022 12(1), e1606
     doi.org/10.1002/wcms.1606

List of optional additional citations

  1. Neese, F.
     Approximate second-order SCF convergence for spin unrestricted wavefunctions
     Chem. Phys. Lett. 2000 325(1-3), 93-98
     doi.org/10.1016/s0009-2614(00)00662-x

Timings for individual modules:

Sum of individual times          ...      943.555 sec (=  15.726 min)
Startup calculation              ...       28.373 sec (=   0.473 min)   3.0 %
SCF iterations                   ...      612.086 sec (=  10.201 min)  64.9 %
Property calculations            ...        0.427 sec (=   0.007 min)   0.0 %
SCF Gradient evaluation          ...      302.523 sec (=   5.042 min)  32.1 %
Geometry relaxation              ...        0.146 sec (=   0.002 min)   0.0 %
                             ****ORCA TERMINATED NORMALLY****
TOTAL RUN TIME: 0 days 0 hours 15 minutes 47 seconds 365 msec
