[Molden Format]
[Title]
 Molden file created by orca_2mkl for BaseName=/kaggle/working/Leu-2/Leu_InterFrag

[Atoms] AU
O    1   8          2.2810581806        -2.4184904035         2.4383268587 
O    2   8          3.3902008096        -1.7812369566        -1.6251077834 
N    3   7          3.2878400141         3.3961534469         0.1387720386 
C    4   6         -3.4150299213         0.3133014752        -0.7881556376 
C    5   6         -1.0228199392         1.9196102630        -1.2386285534 
C    6   6          1.2212884264         1.5771181882         0.5863102098 
C    7   6         -4.4721465000         0.6466926289         1.8910224860 
C    8   6         -3.0686790257        -2.4986544758        -1.4147415804 
C    9   6          2.3981002585        -1.0223456179         0.3151477376 
H   10   1         -4.8290798619         1.0596336940        -2.1125758677 
H   11   1         -0.3252388752         1.5983341435        -3.1654462319 
H   12   1         -1.5482620702         3.9215124300        -1.1160514677 
H   13   1          0.5886326832         1.8024377941         2.5358197197 
H   14   1         -3.2176404677        -0.1944849445         3.3077804043 
H   15   1         -4.7169529618         2.6479126047         2.3650187128 
H   16   1         -6.3155025341        -0.2782489451         2.0709130756 
H   17   1         -2.2304909990        -2.7654781367        -3.2884428367 
H   18   1         -1.8630469804        -3.4530833364        -0.0309763908 
H   19   1         -4.8975087350        -3.4688115270        -1.3915338538 
H   20   1          2.5295855131         5.1601598806         0.2929963679 
H   21   1          3.7997384779         3.2270550833        -1.7127041486 
H   22   1          3.0664661564        -4.0506109605         2.0917321885 
[GTO]
  1 0
s   6 1.0 
     5484.6717000000         0.8317352088
      825.2349500000         1.5308074829
      188.0469600000         2.4771490916
       52.9645000000         3.2562802462
       16.8975700000         2.7928936336
        5.7996353000         0.9549376963
s   3 1.0 
       15.5396160000        -0.6179336976
        3.5999336000        -0.2757210088
        1.0137618000         0.8142076427
p   3 1.0 
       15.5396160000         3.1169455889
        3.5999336000         2.4014372483
        1.0137618000         1.0543605133
s   1 1.0 
        0.2700058000         0.2669561389
p   1 1.0 
        0.2700058000         0.2774319373
d   1 1.0 
        0.8000000000         1.9292013661

  2 0
s   6 1.0 
     5484.6717000000         0.8317352088
      825.2349500000         1.5308074829
      188.0469600000         2.4771490916
       52.9645000000         3.2562802462
       16.8975700000         2.7928936336
        5.7996353000         0.9549376963
s   3 1.0 
       15.5396160000        -0.6179336976
        3.5999336000        -0.2757210088
        1.0137618000         0.8142076427
p   3 1.0 
       15.5396160000         3.1169455889
        3.5999336000         2.4014372483
        1.0137618000         1.0543605133
s   1 1.0 
        0.2700058000         0.2669561389
p   1 1.0 
        0.2700058000         0.2774319373
d   1 1.0 
        0.8000000000         1.9292013661

  3 0
s   6 1.0 
     4173.5110000000         0.6790079572
      627.4579000000         1.2504643275
      142.9021000000         2.0203691378
       40.2343300000         2.6442129843
       12.8202100000         2.2650039968
        4.3904370000         0.7791872309
s   3 1.0 
       11.6263580000        -0.5158738103
        2.7162800000        -0.2550239186
        0.7722180000         0.6727344163
p   3 1.0 
       11.6263580000         2.0680595460
        2.7162800000         1.6100106206
        0.7722180000         0.7644899877
s   1 1.0 
        0.2120313000         0.2226947990
p   1 1.0 
        0.2120313000         0.2050879094
d   1 1.0 
        0.8000000000         1.9292013661

  4 0
s   6 1.0 
     3047.5249000000         0.5363343823
      457.3695100000         0.9894506076
      103.9486900000         1.5972822308
       29.2101550000         2.0791870615
        9.2866630000         1.7741742532
        3.1639270000         0.6125798260
s   3 1.0 
        7.8682724000        -0.3995563516
        1.8812885000        -0.1841552393
        0.5442493000         0.5163903794
p   3 1.0 
        7.8682724000         1.2960827175
        1.8812885000         0.9937536282
        0.5442493000         0.4959527138
s   1 1.0 
        0.1687144000         0.1876178721
p   1 1.0 
        0.1687144000         0.1541275509
d   1 1.0 
        0.8000000000         1.9292013661

  5 0
s   6 1.0 
     3047.5249000000         0.5363343823
      457.3695100000         0.9894506076
      103.9486900000         1.5972822308
       29.2101550000         2.0791870615
        9.2866630000         1.7741742532
        3.1639270000         0.6125798260
s   3 1.0 
        7.8682724000        -0.3995563516
        1.8812885000        -0.1841552393
        0.5442493000         0.5163903794
p   3 1.0 
        7.8682724000         1.2960827175
        1.8812885000         0.9937536282
        0.5442493000         0.4959527138
s   1 1.0 
        0.1687144000         0.1876178721
p   1 1.0 
        0.1687144000         0.1541275509
d   1 1.0 
        0.8000000000         1.9292013661

  6 0
s   6 1.0 
     3047.5249000000         0.5363343823
      457.3695100000         0.9894506076
      103.9486900000         1.5972822308
       29.2101550000         2.0791870615
        9.2866630000         1.7741742532
        3.1639270000         0.6125798260
s   3 1.0 
        7.8682724000        -0.3995563516
        1.8812885000        -0.1841552393
        0.5442493000         0.5163903794
p   3 1.0 
        7.8682724000         1.2960827175
        1.8812885000         0.9937536282
        0.5442493000         0.4959527138
s   1 1.0 
        0.1687144000         0.1876178721
p   1 1.0 
        0.1687144000         0.1541275509
d   1 1.0 
        0.8000000000         1.9292013661

  7 0
s   6 1.0 
     3047.5249000000         0.5363343823
      457.3695100000         0.9894506076
      103.9486900000         1.5972822308
       29.2101550000         2.0791870615
        9.2866630000         1.7741742532
        3.1639270000         0.6125798260
s   3 1.0 
        7.8682724000        -0.3995563516
        1.8812885000        -0.1841552393
        0.5442493000         0.5163903794
p   3 1.0 
        7.8682724000         1.2960827175
        1.8812885000         0.9937536282
        0.5442493000         0.4959527138
s   1 1.0 
        0.1687144000         0.1876178721
p   1 1.0 
        0.1687144000         0.1541275509
d   1 1.0 
        0.8000000000         1.9292013661

  8 0
s   6 1.0 
     3047.5249000000         0.5363343823
      457.3695100000         0.9894506076
      103.9486900000         1.5972822308
       29.2101550000         2.0791870615
        9.2866630000         1.7741742532
        3.1639270000         0.6125798260
s   3 1.0 
        7.8682724000        -0.3995563516
        1.8812885000        -0.1841552393
        0.5442493000         0.5163903794
p   3 1.0 
        7.8682724000         1.2960827175
        1.8812885000         0.9937536282
        0.5442493000         0.4959527138
s   1 1.0 
        0.1687144000         0.1876178721
p   1 1.0 
        0.1687144000         0.1541275509
d   1 1.0 
        0.8000000000         1.9292013661

  9 0
s   6 1.0 
     3047.5249000000         0.5363343823
      457.3695100000         0.9894506076
      103.9486900000         1.5972822308
       29.2101550000         2.0791870615
        9.2866630000         1.7741742532
        3.1639270000         0.6125798260
s   3 1.0 
        7.8682724000        -0.3995563516
        1.8812885000        -0.1841552393
        0.5442493000         0.5163903794
p   3 1.0 
        7.8682724000         1.2960827175
        1.8812885000         0.9937536282
        0.5442493000         0.4959527138
s   1 1.0 
        0.1687144000         0.1876178721
p   1 1.0 
        0.1687144000         0.1541275509
d   1 1.0 
        0.8000000000         1.9292013661

 10 0
s   3 1.0 
       18.7311370000         0.2149354183
        2.8253937000         0.3645711272
        0.6401217000         0.4150514277
s   1 1.0 
        0.1612778000         0.1813806839
p   1 1.0 
        1.1000000000         1.6057611426

 11 0
s   3 1.0 
       18.7311370000         0.2149354183
        2.8253937000         0.3645711272
        0.6401217000         0.4150514277
s   1 1.0 
        0.1612778000         0.1813806839
p   1 1.0 
        1.1000000000         1.6057611426

 12 0
s   3 1.0 
       18.7311370000         0.2149354183
        2.8253937000         0.3645711272
        0.6401217000         0.4150514277
s   1 1.0 
        0.1612778000         0.1813806839
p   1 1.0 
        1.1000000000         1.6057611426

 13 0
s   3 1.0 
       18.7311370000         0.2149354183
        2.8253937000         0.3645711272
        0.6401217000         0.4150514277
s   1 1.0 
        0.1612778000         0.1813806839
p   1 1.0 
        1.1000000000         1.6057611426

 14 0
s   3 1.0 
       18.7311370000         0.2149354183
        2.8253937000         0.3645711272
        0.6401217000         0.4150514277
s   1 1.0 
        0.1612778000         0.1813806839
p   1 1.0 
        1.1000000000         1.6057611426

 15 0
s   3 1.0 
       18.7311370000         0.2149354183
        2.8253937000         0.3645711272
        0.6401217000         0.4150514277
s   1 1.0 
        0.1612778000         0.1813806839
p   1 1.0 
        1.1000000000         1.6057611426

 16 0
s   3 1.0 
       18.7311370000         0.2149354183
        2.8253937000         0.3645711272
        0.6401217000         0.4150514277
s   1 1.0 
        0.1612778000         0.1813806839
p   1 1.0 
        1.1000000000         1.6057611426

 17 0
s   3 1.0 
       18.7311370000         0.2149354183
        2.8253937000         0.3645711272
        0.6401217000         0.4150514277
s   1 1.0 
        0.1612778000         0.1813806839
p   1 1.0 
        1.1000000000         1.6057611426

 18 0
s   3 1.0 
       18.7311370000         0.2149354183
        2.8253937000         0.3645711272
        0.6401217000         0.4150514277
s   1 1.0 
        0.1612778000         0.1813806839
p   1 1.0 
        1.1000000000         1.6057611426

 19 0
s   3 1.0 
       18.7311370000         0.2149354183
        2.8253937000         0.3645711272
        0.6401217000         0.4150514277
s   1 1.0 
        0.1612778000         0.1813806839
p   1 1.0 
        1.1000000000         1.6057611426

 20 0
s   3 1.0 
       18.7311370000         0.2149354183
        2.8253937000         0.3645711272
        0.6401217000         0.4150514277
s   1 1.0 
        0.1612778000         0.1813806839
p   1 1.0 
        1.1000000000         1.6057611426

 21 0
s   3 1.0 
       18.7311370000         0.2149354183
        2.8253937000         0.3645711272
        0.6401217000         0.4150514277
s   1 1.0 
        0.1612778000         0.1813806839
p   1 1.0 
        1.1000000000         1.6057611426

 22 0
s   3 1.0 
       18.7311370000         0.2149354183
        2.8253937000         0.3645711272
        0.6401217000         0.4150514277
s   1 1.0 
        0.1612778000         0.1813806839
p   1 1.0 
        1.1000000000         1.6057611426

[5D]
[7F]
[9G]
[MO]
 Sym=     1a
 Ene= -1.91940239941077E+01
 Spin= Alpha
 Occup= 2.000000
  1      -0.995102837882
  2      -0.030300532345
  3      -0.000809638725
  4       0.000571684310
  5       0.001783808676
  6       0.021794220840
  7       0.000561136241
  8       0.003323298995
  9      -0.006131239983
 10       0.000813800102
 11      -0.000011600135
 12      -0.000671542855
 13       0.000244233361
 14       0.000494419963
 15       0.000544815569
 16       0.000589445723
 17      -0.000063932644
 18       0.000169710724
 19       0.000039956874
 20      -0.002664800845
 21       0.000664715572
 22      -0.002340123529
 23       0.000576310498
 24       0.000344189121
 25       0.000012466598
 26      -0.000311765332
 27       0.000201553280
 28       0.000328534770
 29      -0.000012543553
 30      -0.000146722507
 31      -0.000044931764
 32      -0.000063761363
 33      -0.000070314667
 34       0.001772472426
 35      -0.000793873763
 36      -0.000028748341
 37      -0.000110631394
 38      -0.000051932495
 39       0.000129119576
 40      -0.000016386622
 41       0.000090531980
 42       0.000067710288
 43      -0.000034393079
 44      -0.000381485963
 45      -0.000067809323
 46       0.000074068256
 47      -0.000004352820
 48       0.001845545663
 49       0.000824555905
 50       0.000115714636
 51      -0.000004913634
 52      -0.000009388353
 53      -0.000041044931
 54       0.000004826734
 55       0.000005354207
 56       0.000049640883
 57       0.000006352071
 58       0.000092583234
 59       0.000116890393
 60      -0.000104904979
 61      -0.000002779872
 62       0.001092548352
 63       0.001707315374
 64       0.001526040983
 65       0.000073596372
 66      -0.000086799310
 67       0.000052944784
 68       0.000011511900
 69       0.000086010678
 70       0.000012774278
 71       0.000060962292
 72       0.000811172642
 73       0.000066646403
 74      -0.000182888631
 75      -0.000189942691
 76      -0.003201713289
 77      -0.001228900014
 78      -0.000923417011
 79       0.004643426657
 80      -0.000100135737
 81       0.000137436530
 82      -0.000241382464
 83      -0.000167563155
 84      -0.000009813989
 85       0.000016101222
 86       0.000115235249
 87      -0.000014071852
 88       0.000007198358
 89       0.000017644909
 90      -0.000604692543
 91      -0.000261834535
 92       0.000009130857
 93       0.000025691916
 94       0.000008367576
 95       0.000023410579
 96      -0.000002149020
 97      -0.000014755487
 98       0.000021648808
 99      -0.000011249208
100      -0.000218044093
101      -0.000119460773
102      -0.000099541839
103      -0.000045202982
104      -0.000122761937
105       0.000558327604
106       0.000121889494
107       0.000013068469
108       0.000037761441
109       0.000006264944
110      -0.000021016535
111      -0.000010436223
112      -0.000057490968
113      -0.000043956412
114      -0.000087754657
115      -0.000083374506
116       0.000366414622
117      -0.000593383820
118      -0.007501736359
119       0.000972853584
120       0.006709145661
121      -0.010088473300
122       0.000234187945
123       0.000002400014
124      -0.000074292322
125       0.000252873487
126       0.000271341780
127      -0.000060458361
128       0.000250324967
129       0.000022088999
130      -0.000002982223
131       0.000029996154
132       0.000076676596
133      -0.000462805158
134      -0.000051130477
135      -0.000037847596
136      -0.000016431766
137      -0.000148900470
138      -0.000574567877
139      -0.000065816770
140       0.000001808922
141       0.000030378030
142      -0.000100402062
143      -0.001795704555
144       0.000027432854
145      -0.000039528827
146       0.000021414896
147       0.000026873960
148       0.000259471187
149       0.000011500402
150       0.000015746595
151      -0.000008868639
152       0.000020502895
153       0.000114369836
154       0.000021449967
155      -0.000007610999
156      -0.000004591037
157       0.000018653796
158      -0.000012522958
159       0.000008276753
160      -0.000008298195
161      -0.000014101552
162      -0.000028321888
163      -0.000197528205
164      -0.000052303059
165      -0.000022504058
166      -0.000044259739
167      -0.000018692415
168       0.000215610032
169       0.000128711647
170       0.000036157374
171       0.000035144599
172       0.000077652791
173       0.000369196872
174       0.000029076736
175       0.000040211014
176      -0.000015107848
177      -0.000115722008
178      -0.000159434017
179      -0.000005420567
180      -0.000004987319
181       0.000000118950
182       0.000087163436
183      -0.000238137507
184      -0.000035756303
185       0.000035189933
186      -0.000001127515
187       0.000417636001
188      -0.000411006355
189      -0.000787775019
190       0.001448230959
191       0.000575312989
 Sym=     1a
 Ene= -1.91305474307441E+01
 Spin= Alpha
 Occup= 2.000000
  1       0.000500511145
  2      -0.000592957673
  3       0.000083337814
  4      -0.000252114659
  5       0.000036309298
  6       0.003228334197
  7      -0.001097663721
  8       0.002550761220
  9       0.000380574013
 10      -0.000398518577
 11       0.000192042434
 12      -0.000192548911
 13      -0.000255697825
 14      -0.000152722756
 15       0.995207537787
 16       0.030921105916
 17      -0.000973857261
 18       0.000711538827
 19       0.001912019060
 20      -0.027288737018
 21       0.003655748396
 22      -0.002681348572
 23      -0.006844203295
 24      -0.000210408828
 25       0.000271038289
 26      -0.000192888895
 27      -0.000051833173
 28       0.000085997379
 29       0.000031476683
 30       0.000300466476
 31       0.000030199756
 32      -0.000135636118
 33       0.000016599228
 34      -0.000308929339
 35      -0.000370497319
 36       0.001288577814
 37      -0.000383864350
 38      -0.000006322402
 39       0.000161863051
 40      -0.000004009273
 41       0.000196130054
 42      -0.000060467178
 43      -0.000080465110
 44      -0.000650575078
 45      -0.000010076346
 46       0.000064655519
 47       0.000027942690
 48       0.004063737002
 49       0.002308498600
 50      -0.000070760784
 51      -0.000855224987
 52      -0.000075397075
 53      -0.000057333922
 54       0.000011523162
 55       0.000055778827
 56       0.000002882634
 57       0.000080617610
 58       0.000670548372
 59       0.000063388379
 60      -0.000144737367
 61      -0.000018600941
 62      -0.001996268512
 63       0.001751488843
 64       0.002849340495
 65       0.000152952378
 66      -0.000036127733
 67       0.000040350704
 68       0.000071020630
 69      -0.000002796817
 70       0.000029117662
 71      -0.000075570691
 72      -0.000845171037
 73      -0.000161444733
 74       0.000371955452
 75      -0.000088602987
 76       0.005536128723
 77       0.000926049671
 78      -0.003689254950
 79       0.004427540306
 80       0.000011657305
 81       0.000142128040
 82      -0.000498607355
 83      -0.000099421669
 84       0.000142455889
 85       0.000014385406
 86       0.000086872250
 87      -0.000007570034
 88       0.000008852456
 89       0.000051399671
 90      -0.000386406420
 91      -0.000495986086
 92       0.000079571413
 93      -0.000496601031
 94       0.000032212010
 95       0.000015595696
 96       0.000007106475
 97      -0.000013382525
 98       0.000042024360
 99       0.000031409711
100       0.000276138856
101       0.000170621321
102      -0.000084260462
103      -0.000059111939
104      -0.001486590339
105      -0.001095700499
106      -0.000798265330
107       0.000386405192
108      -0.000059411662
109       0.000006474435
110       0.000005220627
111       0.000054302191
112       0.000022861505
113       0.000261220025
114       0.000392517540
115       0.000209798877
116      -0.000196647795
117      -0.000048807716
118       0.008658845216
119       0.006307373268
120      -0.005198315666
121      -0.013904824056
122      -0.000517868708
123       0.000438543192
124      -0.000353465244
125      -0.000171099487
126       0.000010352453
127      -0.000097840272
128       0.000056912060
129      -0.000060085546
130       0.000013300409
131       0.000068193505
132       0.000180565995
133       0.000158767683
134      -0.000099604046
135      -0.000092905654
136       0.000027671652
137      -0.000137576318
138      -0.000538135363
139      -0.000051585863
140      -0.000015441001
141       0.000068037412
142      -0.000614214060
143      -0.001430711426
144      -0.000024617222
145      -0.000013233381
146      -0.000023331984
147       0.000004252091
148       0.000681255311
149      -0.000029318825
150       0.000030450768
151      -0.000023619834
152       0.000009876473
153       0.000142650337
154       0.000042716849
155      -0.000018616527
156       0.000017197516
157      -0.000007964285
158      -0.000046725042
159       0.000015168104
160      -0.000017546381
161      -0.000002436551
162       0.000227953786
163       0.000430518478
164       0.000025501214
165       0.000026758715
166       0.000050443704
167       0.000229964444
168      -0.000239975190
169       0.000020172761
170       0.000020094446
171       0.000032858358
172      -0.000091366831
173      -0.000422992150
174      -0.000035712709
175       0.000000471509
176      -0.000021107028
177      -0.000085715140
178      -0.000350245186
179      -0.000063292890
180      -0.000047861915
181       0.000047424383
182       0.000113565127
183      -0.000143055312
184      -0.000010712904
185      -0.000016280730
186       0.000048307928
187       0.000156229357
188       0.000173852291
189      -0.000014968551
190      -0.000087362436
191       0.000149799625
 Sym=     1a
 Ene= -1.43133330667761E+01
 Spin= Alpha
 Occup= 2.000000
  1      -0.000003014185
  2      -0.000103711169
  3      -0.000056460531
  4      -0.000064067380
  5      -0.000001472009
  6       0.000264410961
  7       0.000173036105
  8       0.000357989912
  9      -0.000103399421
 10      -0.000006806147
 11       0.000012733137
 12      -0.000046584191
 13      -0.000056028677
 14       0.000050419490
 15      -0.000011662249
 16      -0.000195776028
 17       0.000033766689
 18      -0.000018444011
 19       0.000022078673
 20       0.000845084838
 21      -0.000181338798
 22       0.000482114380
 23       0.000125420326
 24      -0.000054894337
 25       0.000028209962
 26       0.000065494836
 27      -0.000071365799
 28      -0.000056823133
 29      -0.995164585154
 30      -0.032815701804
 31       0.001738616173
 32      -0.000683146287
 33       0.001758357340
 34       0.021034675783
 35      -0.005006004986
 36      -0.002701822760
 37      -0.000873793903
 38      -0.000549486294
 39       0.000394542898
 40      -0.000262861067
 41       0.000597176100
 42       0.000963923961
 43       0.000093485670
 44       0.000844533605
 45       0.000089322514
 46      -0.000055052435
 47       0.000090875123
 48      -0.003588909325
 49      -0.002037519936
 50      -0.000307177200
 51      -0.000462155029
 52       0.000084489297
 53       0.000041674086
 54      -0.000012182355
 55      -0.000047362767
 56      -0.000129939813
 57      -0.000013774086
 58       0.000183852619
 59       0.000371555516
 60       0.000176105780
 61       0.000040087772
 62       0.001919320658
 63      -0.001395013554
 64      -0.001562474521
 65       0.001106381559
 66      -0.000091641079
 67       0.000060759406
 68       0.000068425757
 69       0.000167591106
 70       0.000106360982
 71       0.000046257793
 72       0.000878796228
 73      -0.000051898209
 74      -0.000201277460
 75      -0.000058897076
 76      -0.008379047557
 77      -0.003046233690
 78      -0.004056726169
 79       0.000989523821
 80      -0.000253464165
 81      -0.000020652250
 82       0.000014409707
 83       0.000053715757
 84       0.000236281358
 85      -0.000002178134
 86       0.000082245110
 87       0.000115154801
 88       0.000018794752
 89      -0.000102695135
 90       0.000751708452
 91       0.000043201529
 92      -0.000318186849
 93       0.000167384029
 94      -0.000025908905
 95      -0.000036025303
 96      -0.000013067050
 97       0.000020452841
 98      -0.000029753963
 99      -0.000009150371
100       0.000011115814
101       0.000037232019
102       0.000119965572
103       0.000023075940
104       0.000856642902
105       0.000094962396
106       0.000107932701
107       0.000145990910
108       0.000017272380
109       0.000017107840
110       0.000030222799
111      -0.000031818872
112       0.000048713412
113       0.000075048691
114       0.000846968280
115      -0.000014385374
116       0.000412559342
117       0.000008673980
118      -0.002182740087
119       0.000169268102
120      -0.000881570106
121       0.000116728124
122       0.000016723424
123       0.000122750702
124       0.000068925349
125      -0.000048626005
126      -0.000074033670
127       0.000032986261
128      -0.000413286967
129       0.000015745521
130       0.000048161389
131      -0.000042838058
132       0.000068018817
133       0.000869795078
134       0.000148023946
135       0.000143801553
136       0.000113427564
137       0.000121142916
138       0.000714456763
139       0.000228841408
140      -0.000017480376
141      -0.000012000120
142       0.000489414548
143       0.000387608146
144       0.000123436125
145       0.000115569723
146      -0.000108258353
147       0.000040548512
148      -0.000506248101
149       0.000019467590
150      -0.000023025393
151       0.000014262295
152       0.000006622457
153       0.000046687316
154       0.000005956222
155       0.000004270041
156      -0.000019800442
157      -0.000041741366
158      -0.000311467082
159      -0.000039359395
160       0.000003390418
161       0.000013955719
162       0.000008429548
163      -0.000148888752
164      -0.000003975267
165       0.000003527527
166      -0.000019246011
167      -0.000031568259
168      -0.000115897383
169       0.000001315186
170       0.000020394585
171       0.000011953333
172      -0.000022154232
173      -0.000203637200
174      -0.000016424399
175      -0.000034737591
176      -0.000015761033
177       0.000760331149
178      -0.002105752205
179       0.001020699627
180      -0.001733532350
181      -0.000065457705
182       0.000661941659
183      -0.002349304314
184      -0.000258714727
185       0.000264121209
186       0.001921013302
187       0.000004415524
188       0.000047011210
189      -0.000029587020
190      -0.000005607527
191       0.000017597812
 Sym=     1a
 Ene= -1.03109270002575E+01
 Spin= Alpha
 Occup= 2.000000
  1       0.000140928155
  2       0.001096300639
  3       0.000028768046
  4      -0.000396916343
  5       0.000365494593
  6      -0.004465300250
  7      -0.001255066312
  8      -0.000469397923
  9       0.004047709050
 10      -0.001338671235
 11       0.000438609901
 12       0.001536888516
 13       0.000640301089
 14       0.000072486592
 15      -0.000032114170
 16       0.000497300436
 17       0.000494596416
 18      -0.000503634515
 19      -0.000755855122
 20      -0.005614214379
 21       0.001161633012
 22       0.000336289475
 23      -0.004518669651
 24      -0.001321682677
 25       0.001156587121
 26      -0.000660627981
 27      -0.000111842236
 28       0.000338742624
 29      -0.000039115529
 30      -0.000636211357
 31       0.000013102982
 32       0.000337739618
 33      -0.000000490970
 34       0.001224150447
 35      -0.000122026672
 36      -0.001925498214
 37      -0.000367410512
 38      -0.000103404256
 39      -0.000029516817
 40       0.000092056326
 41      -0.000168691955
 42       0.000038721646
 43       0.000056811283
 44       0.000358659304
 45      -0.000098025849
 46       0.000030606908
 47      -0.000029264992
 48      -0.002483525771
 49      -0.001412085410
 50       0.001148192193
 51       0.001121531469
 52       0.000086893342
 53      -0.000008932360
 54      -0.000030177882
 55      -0.000088958654
 56       0.000087198106
 57      -0.000237833271
 58      -0.001114574002
 59      -0.000306111525
 60       0.000314653983
 61      -0.000126416862
 62       0.002911101703
 63       0.001201091783
 64      -0.002186312720
 65       0.000043451001
 66      -0.000061537871
 67       0.000030981927
 68       0.000063047636
 69       0.000032714101
 70      -0.000034007629
 71       0.000800639428
 72      -0.001044669151
 73      -0.000189174099
 74       0.000446495468
 75       0.000050700877
 76       0.007470722931
 77       0.001234576753
 78      -0.004696421414
 79       0.001031581217
 80       0.000577512883
 81      -0.000005562130
 82      -0.000048751309
 83       0.000389526597
 84       0.000510593383
 85       0.000063316012
 86       0.000294980476
 87       0.000055397569
 88       0.000015005576
 89      -0.000035893030
 90      -0.000982113934
 91      -0.000287586821
 92      -0.000300276402
 93       0.000558740102
 94      -0.000036610634
 95       0.000000415119
 96       0.000013673818
 97       0.000002160073
 98       0.000011327161
 99      -0.000092060066
100      -0.000402118040
101      -0.000266114388
102      -0.000084869155
103      -0.000043456549
104       0.001239060058
105       0.001116714952
106       0.001843766255
107      -0.000233407531
108       0.000041214091
109      -0.000007944128
110       0.000024604012
111      -0.000135353711
112      -0.000073750753
113       0.995191254539
114       0.037404626962
115       0.000406532158
116      -0.001398294984
117      -0.000145424571
118      -0.014203799997
119       0.005294561762
120      -0.009236160298
121      -0.001000372956
122       0.001452182142
123      -0.001158999800
124      -0.000252668431
125      -0.000480041559
126      -0.000608593069
127       0.000064604969
128       0.000178425619
129       0.000095843255
130      -0.000040306682
131      -0.000051456552
132      -0.000388138377
133      -0.000350236075
134      -0.000048840111
135       0.000103302746
136      -0.000028417903
137       0.000097997053
138       0.001088298488
139       0.000031037858
140      -0.000044432055
141       0.000026143591
142      -0.000598107344
143       0.000098230534
144       0.000045990372
145      -0.000104938372
146       0.000082728736
147       0.000063702288
148      -0.000169352702
149       0.000011117532
150       0.000007522704
151      -0.000010197895
152       0.000076760064
153       0.000159436949
154       0.000025756112
155       0.000002065531
156      -0.000015172951
157       0.000027218125
158      -0.000220221864
159      -0.000025009119