[Molden Format]
[Title]
 Molden file created by orca_2mkl for BaseName=/kaggle/working/Val-2/Val_InterFrag

[Atoms] AU
O    1   8         -2.6155283680        -2.7309774067        -0.0046865208 
O    2   8         -3.2915136417         1.0786840231         1.7644013864 
N    3   7         -0.3442589687         3.3869712676        -1.9003785201 
C    4   6          2.5845822128         0.0757969152        -0.3880571513 
C    5   6         -0.0734404267         0.6593745810        -1.5061740897 
C    6   6          3.2574494384        -2.7346019014        -0.5359471186 
C    7   6          2.9093070825         1.0920500561         2.3035761573 
C    8   6         -2.1500094527        -0.2379373072         0.2543363506 
H    9   1          3.8917586920         1.1028857457        -1.6320052838 
H   10   1         -0.2603437900        -0.4486776760        -3.2539080916 
H   11   1          3.0284996687        -3.4686225544        -2.4578345016 
H   12   1          2.0710226798        -3.8655595289         0.7252353162 
H   13   1          5.2276079858        -3.0233350471         0.0269569433 
H   14   1          1.7503493829         0.0267547426         3.6507940435 
H   15   1          4.8815405491         0.9152132639         2.9030804349 
H   16   1          2.3738683003         3.0828576409         2.4302085952 
H   17   1         -2.0661150610         3.7276397567        -2.6895583893 
H   18   1          0.9535765942         3.9004117479        -3.2247496174 
H   19   1         -3.8955230264        -3.1961731788         1.2360509669 
[GTO]
  1 0
s   6 1.0 
     5484.6717000000         0.8317352088
      825.2349500000         1.5308074829
      188.0469600000         2.4771490916
       52.9645000000         3.2562802462
       16.8975700000         2.7928936336
        5.7996353000         0.9549376963
s   3 1.0 
       15.5396160000        -0.6179336976
        3.5999336000        -0.2757210088
        1.0137618000         0.8142076427
p   3 1.0 
       15.5396160000         3.1169455889
        3.5999336000         2.4014372483
        1.0137618000         1.0543605133
s   1 1.0 
        0.2700058000         0.2669561389
p   1 1.0 
        0.2700058000         0.2774319373
d   1 1.0 
        0.8000000000         1.9292013661

  2 0
s   6 1.0 
     5484.6717000000         0.8317352088
      825.2349500000         1.5308074829
      188.0469600000         2.4771490916
       52.9645000000         3.2562802462
       16.8975700000         2.7928936336
        5.7996353000         0.9549376963
s   3 1.0 
       15.5396160000        -0.6179336976
        3.5999336000        -0.2757210088
        1.0137618000         0.8142076427
p   3 1.0 
       15.5396160000         3.1169455889
        3.5999336000         2.4014372483
        1.0137618000         1.0543605133
s   1 1.0 
        0.2700058000         0.2669561389
p   1 1.0 
        0.2700058000         0.2774319373
d   1 1.0 
        0.8000000000         1.9292013661

  3 0
s   6 1.0 
     4173.5110000000         0.6790079572
      627.4579000000         1.2504643275
      142.9021000000         2.0203691378
       40.2343300000         2.6442129843
       12.8202100000         2.2650039968
        4.3904370000         0.7791872309
s   3 1.0 
       11.6263580000        -0.5158738103
        2.7162800000        -0.2550239186
        0.7722180000         0.6727344163
p   3 1.0 
       11.6263580000         2.0680595460
        2.7162800000         1.6100106206
        0.7722180000         0.7644899877
s   1 1.0 
        0.2120313000         0.2226947990
p   1 1.0 
        0.2120313000         0.2050879094
d   1 1.0 
        0.8000000000         1.9292013661

  4 0
s   6 1.0 
     3047.5249000000         0.5363343823
      457.3695100000         0.9894506076
      103.9486900000         1.5972822308
       29.2101550000         2.0791870615
        9.2866630000         1.7741742532
        3.1639270000         0.6125798260
s   3 1.0 
        7.8682724000        -0.3995563516
        1.8812885000        -0.1841552393
        0.5442493000         0.5163903794
p   3 1.0 
        7.8682724000         1.2960827175
        1.8812885000         0.9937536282
        0.5442493000         0.4959527138
s   1 1.0 
        0.1687144000         0.1876178721
p   1 1.0 
        0.1687144000         0.1541275509
d   1 1.0 
        0.8000000000         1.9292013661

  5 0
s   6 1.0 
     3047.5249000000         0.5363343823
      457.3695100000         0.9894506076
      103.9486900000         1.5972822308
       29.2101550000         2.0791870615
        9.2866630000         1.7741742532
        3.1639270000         0.6125798260
s   3 1.0 
        7.8682724000        -0.3995563516
        1.8812885000        -0.1841552393
        0.5442493000         0.5163903794
p   3 1.0 
        7.8682724000         1.2960827175
        1.8812885000         0.9937536282
        0.5442493000         0.4959527138
s   1 1.0 
        0.1687144000         0.1876178721
p   1 1.0 
        0.1687144000         0.1541275509
d   1 1.0 
        0.8000000000         1.9292013661

  6 0
s   6 1.0 
     3047.5249000000         0.5363343823
      457.3695100000         0.9894506076
      103.9486900000         1.5972822308
       29.2101550000         2.0791870615
        9.2866630000         1.7741742532
        3.1639270000         0.6125798260
s   3 1.0 
        7.8682724000        -0.3995563516
        1.8812885000        -0.1841552393
        0.5442493000         0.5163903794
p   3 1.0 
        7.8682724000         1.2960827175
        1.8812885000         0.9937536282
        0.5442493000         0.4959527138
s   1 1.0 
        0.1687144000         0.1876178721
p   1 1.0 
        0.1687144000         0.1541275509
d   1 1.0 
        0.8000000000         1.9292013661

  7 0
s   6 1.0 
     3047.5249000000         0.5363343823
      457.3695100000         0.9894506076
      103.9486900000         1.5972822308
       29.2101550000         2.0791870615
        9.2866630000         1.7741742532
        3.1639270000         0.6125798260
s   3 1.0 
        7.8682724000        -0.3995563516
        1.8812885000        -0.1841552393
        0.5442493000         0.5163903794
p   3 1.0 
        7.8682724000         1.2960827175
        1.8812885000         0.9937536282
        0.5442493000         0.4959527138
s   1 1.0 
        0.1687144000         0.1876178721
p   1 1.0 
        0.1687144000         0.1541275509
d   1 1.0 
        0.8000000000         1.9292013661

  8 0
s   6 1.0 
     3047.5249000000         0.5363343823
      457.3695100000         0.9894506076
      103.9486900000         1.5972822308
       29.2101550000         2.0791870615
        9.2866630000         1.7741742532
        3.1639270000         0.6125798260
s   3 1.0 
        7.8682724000        -0.3995563516
        1.8812885000        -0.1841552393
        0.5442493000         0.5163903794
p   3 1.0 
        7.8682724000         1.2960827175
        1.8812885000         0.9937536282
        0.5442493000         0.4959527138
s   1 1.0 
        0.1687144000         0.1876178721
p   1 1.0 
        0.1687144000         0.1541275509
d   1 1.0 
        0.8000000000         1.9292013661

  9 0
s   3 1.0 
       18.7311370000         0.2149354183
        2.8253937000         0.3645711272
        0.6401217000         0.4150514277
s   1 1.0 
        0.1612778000         0.1813806839
p   1 1.0 
        1.1000000000         1.6057611426

 10 0
s   3 1.0 
       18.7311370000         0.2149354183
        2.8253937000         0.3645711272
        0.6401217000         0.4150514277
s   1 1.0 
        0.1612778000         0.1813806839
p   1 1.0 
        1.1000000000         1.6057611426

 11 0
s   3 1.0 
       18.7311370000         0.2149354183
        2.8253937000         0.3645711272
        0.6401217000         0.4150514277
s   1 1.0 
        0.1612778000         0.1813806839
p   1 1.0 
        1.1000000000         1.6057611426

 12 0
s   3 1.0 
       18.7311370000         0.2149354183
        2.8253937000         0.3645711272
        0.6401217000         0.4150514277
s   1 1.0 
        0.1612778000         0.1813806839
p   1 1.0 
        1.1000000000         1.6057611426

 13 0
s   3 1.0 
       18.7311370000         0.2149354183
        2.8253937000         0.3645711272
        0.6401217000         0.4150514277
s   1 1.0 
        0.1612778000         0.1813806839
p   1 1.0 
        1.1000000000         1.6057611426

 14 0
s   3 1.0 
       18.7311370000         0.2149354183
        2.8253937000         0.3645711272
        0.6401217000         0.4150514277
s   1 1.0 
        0.1612778000         0.1813806839
p   1 1.0 
        1.1000000000         1.6057611426

 15 0
s   3 1.0 
       18.7311370000         0.2149354183
        2.8253937000         0.3645711272
        0.6401217000         0.4150514277
s   1 1.0 
        0.1612778000         0.1813806839
p   1 1.0 
        1.1000000000         1.6057611426

 16 0
s   3 1.0 
       18.7311370000         0.2149354183
        2.8253937000         0.3645711272
        0.6401217000         0.4150514277
s   1 1.0 
        0.1612778000         0.1813806839
p   1 1.0 
        1.1000000000         1.6057611426

 17 0
s   3 1.0 
       18.7311370000         0.2149354183
        2.8253937000         0.3645711272
        0.6401217000         0.4150514277
s   1 1.0 
        0.1612778000         0.1813806839
p   1 1.0 
        1.1000000000         1.6057611426

 18 0
s   3 1.0 
       18.7311370000         0.2149354183
        2.8253937000         0.3645711272
        0.6401217000         0.4150514277
s   1 1.0 
        0.1612778000         0.1813806839
p   1 1.0 
        1.1000000000         1.6057611426

 19 0
s   3 1.0 
       18.7311370000         0.2149354183
        2.8253937000         0.3645711272
        0.6401217000         0.4150514277
s   1 1.0 
        0.1612778000         0.1813806839
p   1 1.0 
        1.1000000000         1.6057611426

[5D]
[7F]
[9G]
[MO]
 Sym=     1a
 Ene= -1.91907346461604E+01
 Spin= Alpha
 Occup= 2.000000
  1      -0.995107764879
  2      -0.030412572174
  3       0.000833401875
  4      -0.001273294862
  5      -0.001307988132
  6       0.022038569354
  7       0.001142812530
  8       0.007069638177
  9       0.001001044200
 10      -0.000473952451
 11       0.000581326769
 12       0.000442717841
 13      -0.000856357255
 14      -0.000053564081
 15       0.000548635175
 16       0.000614438334
 17       0.000105096366
 18       0.000044808534
 19      -0.000111866972
 20      -0.002846658506
 21      -0.001522151273
 22      -0.001551953122
 23       0.001157723484
 24      -0.000172416044
 25       0.000377873690
 26       0.000182030140
 27      -0.000340984747
 28      -0.000107217871
 29       0.000026527580
 30       0.000401011898
 31      -0.000124927724
 32      -0.000175567725
 33       0.000144456817
 34       0.000445887075
 35       0.001416032055
 36       0.000432811235
 37      -0.000437616423
 38       0.000100761644
 39       0.000020781377
 40      -0.000017302270
 41       0.000032235515
 42      -0.000108235570
 43      -0.000129895042
 44      -0.001128848493
 45       0.000098443424
 46       0.000089368520
 47      -0.000182469108
 48       0.005209652818
 49      -0.002629010059
 50       0.000272140814
 51       0.001625591416
 52      -0.000081122895
 53       0.000045611688
 54       0.000039556679
 55       0.000056920574
 56      -0.000090690670
 57       0.000089245226
 58       0.001083549297
 59      -0.000183515034
 60      -0.000008885973
 61       0.000252511074
 62      -0.004112906438
 63      -0.001190067945
 64      -0.001994028846
 65      -0.003202264564
 66      -0.000111001227
 67      -0.000018615852
 68      -0.000184541679
 69      -0.000122870978
 70       0.000259504527
 71       0.000002477246
 72      -0.000044966029
 73      -0.000017281141
 74      -0.000119989734
 75      -0.000029070551
 76      -0.000434533174
 77       0.000702598026
 78      -0.000107703577
 79      -0.000147844968
 80      -0.000035942771
 81       0.000027133391
 82      -0.000075545433
 83       0.000046783332
 84       0.000093101308
 85       0.000054417347
 86       0.000334384523
 87       0.000016901880
 88       0.000104517785
 89       0.000172533494
 90      -0.003009372854
 91       0.000899256070
 92       0.000473567798
 93       0.000516021788
 94       0.000002914326
 95      -0.000045775096
 96      -0.000024709169
 97       0.000012436524
 98      -0.000073342756
 99      -0.000025809025
100       0.000009266154
101       0.000274119695
102       0.000684393399
103       0.000072900756
104      -0.007583041165
105       0.001927966208
106       0.011951239254
107       0.001486642385
108      -0.000021803232
109       0.000257181331
110       0.000223453921
111      -0.000070526705
112      -0.000219947937
113       0.000011382197
114       0.000659406182
115       0.000002017025
116      -0.000091694578
117      -0.000007820285
118      -0.000050511151
119      -0.000924920934
120      -0.000080232741
121      -0.000080051227
122       0.000108532662
123       0.000036313924
124       0.000079911404
125      -0.000043836178
126       0.000009438680
127       0.000034305116
128       0.000147955484
129       0.000059947796
130      -0.000074897562
131      -0.000017900893
132       0.000002386344
133      -0.000062191682
134      -0.000174015182
135       0.000007130266
136       0.000021829200
137       0.000028642989
138       0.000073384533
139       0.000845607016
140       0.000026971235
141       0.000039323069
142      -0.000048966085
143       0.000058413107
144      -0.000010948831
145      -0.000020389251
146      -0.000023611905
147      -0.000022696195
148       0.000193331510
149       0.000105602191
150      -0.000044988254
151      -0.000017657121
152      -0.000002683822
153       0.000263997785
154       0.000028253603
155      -0.000013954328
156       0.000005041268
157       0.000035982873
158      -0.000186374920
159      -0.000732881535
160       0.000023979277
161      -0.000032866701
162      -0.000068009959
163       0.000476657782
164      -0.000292734169
165       0.001225120138
166       0.000175486745
167      -0.001269508273
 Sym=     1a
 Ene= -1.91274124929360E+01
 Spin= Alpha
 Occup= 2.000000
  1      -0.000498632327
  2       0.000600849469
  3       0.000124078761
  4       0.000183389151
  5      -0.000143868665
  6      -0.003266090547
  7      -0.001725596148
  8      -0.001007187541
  9       0.001732798748
 10       0.000067237128
 11       0.000103478006
 12       0.000398214687
 13      -0.000094626972
 14      -0.000356814225
 15      -0.995197337399
 16      -0.030755098551
 17      -0.001077623204
 18       0.001352302281
 19       0.001471453654
 20       0.026551510060
 21       0.003955794969
 22      -0.004544275654
 23      -0.005134167620
 24       0.000047393651
 25      -0.000179135512
 26       0.000241299220
 27      -0.000023494585
 28      -0.000222579776
 29       0.000003480049
 30       0.000068270964
 31       0.000074451974
 32       0.000050952380
 33       0.000000278417
 34      -0.002188101982
 35      -0.000816231786
 36       0.000707035016
 37       0.000030497102
 38       0.000015616985
 39      -0.000099434361
 40      -0.000018724848
 41       0.000014347416
 42       0.000115748258
 43       0.000020997048
 44       0.000098444375
 45      -0.000004746605
 46       0.000014888417
 47      -0.000021322241
 48      -0.000807164021
 49       0.000256974692
 50      -0.002221743624
 51      -0.001239536122
 52      -0.000029360284
 53       0.000080549646
 54       0.000051781607
 55       0.000028427744
 56       0.000079104415
 57       0.000013743432
 58       0.000367098496
 59      -0.000129803404
 60      -0.000134232151
 61       0.000075758412
 62      -0.002984219259
 63       0.001600737308
 64       0.005858066753
 65       0.000607359691
 66       0.000184054822
 67      -0.000179949241
 68       0.000151721631
 69       0.000181746887
 70      -0.000360345468
 71       0.000014867379
 72       0.000140369822
 73       0.000018400187
 74      -0.000020067783
 75       0.000062522727
 76      -0.001270319320
 77      -0.000110932283
 78      -0.000710808822
 79      -0.000143681270
 80       0.000035357611
 81       0.000049761987
 82       0.000024523690
 83       0.000020542072
 84      -0.000002337858
 85      -0.000046794239
 86      -0.000476729890
 87       0.000124803880
 88      -0.000009621263
 89       0.000038133942
 90       0.001799728267
 91      -0.000794664703
 92       0.000221307626
 93      -0.001394090511
 94       0.000052968506
 95       0.000008777523
 96       0.000013462308
 97      -0.000003577648
 98       0.000001142574
 99      -0.000287746092
100      -0.000705235786
101       0.000135000268
102      -0.000017267291
103       0.000002258417
104      -0.008357550764
105       0.007138888685
106      -0.009343281360
107      -0.010370602036
108       0.000109523497
109      -0.000268346380
110       0.000589634103
111      -0.000110639687
112      -0.000486568162
113       0.000079240816
114      -0.000091354063
115       0.000030011064
116       0.000087215184
117       0.000097054809
118       0.000514951493
119       0.000937579685
120       0.000146277712
121      -0.000112417014
122      -0.000003931788
123      -0.000054450924
124       0.000056239977
125      -0.000020541287
126       0.000016916039
127      -0.000006196500
128       0.000097905458
129      -0.000409452600
130       0.000063707408
131      -0.000038853653
132       0.000033067489
133       0.000060146237
134       0.000197788356
135      -0.000010948713
136       0.000023022082
137       0.000016341275
138      -0.000221564439
139       0.000766707167
140      -0.000012659128
141       0.000036285699
142      -0.000029612634
143       0.000006104002
144       0.000452389928
145      -0.000039265771
146      -0.000004867743
147       0.000036162437
148      -0.000182391564
149      -0.000343970636
150       0.000050906616
151       0.000024019015
152       0.000063759518
153      -0.000084639081
154       0.000182881426
155       0.000029806944
156      -0.000071820680
157       0.000069078832
158       0.000108845309
159      -0.000040324274
160       0.000039367691
161       0.000074389055
162       0.000000809949
163      -0.000102698573
164      -0.000166340834
165       0.000021286091
166       0.000172369846
167       0.000004354769
 Sym=     1a
 Ene= -1.43121860447951E+01
 Spin= Alpha
 Occup= 2.000000
  1      -0.000024675836
  2      -0.000439811394
  3      -0.000062872341
  4      -0.000064572577
  5       0.000067870355
  6       0.001818528289
  7       0.000488575955
  8       0.001005925135
  9      -0.000411820209
 10      -0.000097239002
 11      -0.000011702466
 12      -0.000038330713
 13      -0.000091391901
 14       0.000049076320
 15       0.000006261133
 16      -0.000018834117
 17      -0.000024109885
 18      -0.000057223636
 19       0.000102721211
 20      -0.000523865401
 21      -0.000172291197
 22       0.000019702473
 23      -0.000179150455
 24       0.000014561597
 25      -0.000042555164
 26       0.000046356566
 27      -0.000042452011
 28      -0.000015511572
 29       0.995162163753
 30       0.032899763873
 31      -0.000310574604
 32      -0.000870868904
 33      -0.002304223307
 34      -0.021446978457
 35      -0.000370192738
 36       0.005840337474
 37       0.001029963906
 38       0.000205852394
 39      -0.000136463331
 40      -0.000386302068
 41       0.001278952354
 42       0.000080557116
 43      -0.000031045106
 44      -0.000524233720
 45       0.000230433826
 46      -0.000283597561
 47       0.000000003497
 48       0.000198124668
 49      -0.000510741330
 50       0.002164593972
 51       0.001359059030
 52       0.000026053674
 53      -0.000040494337
 54       0.000011200032
 55       0.000021007300
 56       0.000137284938
 57      -0.000058699775
 58      -0.000964131801
 59      -0.000043858473
 60       0.000033440331
 61      -0.000080517336
 62       0.010091513295
 63      -0.001186968492
 64       0.004961420157
 65      -0.002196523727
 66       0.000271600614
 67      -0.000005305103
 68       0.000031691992
 69       0.000259602792
 70       0.000052525550
 71      -0.000070190724
 72      -0.000635961446
 73       0.000108346847
 74      -0.000007860865
 75       0.000025878034
 76       0.002650401163
 77      -0.001163223886
 78       0.001285341211
 79      -0.000478034986
 80      -0.000042299962
 81      -0.000002985130
 82      -0.000056048548
 83      -0.000079763506
 84      -0.000046461922
 85       0.000063917040
 86       0.000448663208
 87       0.000011560653
 88      -0.000036567660
 89       0.000122593592
 90      -0.002785642404
 91       0.000529056566
 92      -0.000264406998
 93       0.000720320299
 94      -0.000044241337
 95      -0.000058199285
 96       0.000061048748
 97      -0.000010931440
 98       0.000017376301
 99      -0.000006572499
100      -0.000441862730
101      -0.000104187733
102      -0.000143778744
103       0.000077373979
104      -0.001342920122
105       0.000211690819
106       0.001326585210
107       0.001113182442
108      -0.000013436994
109      -0.000029941965
110      -0.000016012213
111       0.000089089435
112      -0.000157572306
113      -0.000103266320
114      -0.000296924090
115       0.000129121310
116      -0.000137609442
117      -0.000055222790
118      -0.000661516100
119      -0.000976125603
120       0.000035885355
121      -0.000379230342
122       0.000016161223
123      -0.000213294001
124      -0.000143160567
125       0.000047594634
126      -0.000014271125
127       0.000010808311
128      -0.000177217417
129      -0.000074009627
130       0.000059148654
131      -0.000045008749
132       0.000034863966
133      -0.000016760827
134       0.000496734801
135      -0.000037801713
136      -0.000044603922
137      -0.000000601614
138       0.000177504926
139       0.000076046188
140      -0.000012530139
141       0.000015258226
142      -0.000022467239
143       0.000098058024
144      -0.000040851404
145      -0.000014182586
146       0.000006444938
147      -0.000018052972
148      -0.000015564139
149       0.000979063443
150      -0.000006242441
151      -0.000086482059
152      -0.000009817748
153      -0.000804791608
154       0.001998718036
155      -0.001789725901
156       0.000101797564
157      -0.000925548828
158      -0.000743463201
159       0.002186357791
160       0.001343145278
161       0.000272192378
162      -0.001459850441
163       0.000037494784
164       0.000352369227
165       0.000018682835
166      -0.000028788529
167      -0.000015882022
 Sym=     1a
 Ene= -1.03078965286286E+01
 Spin= Alpha
 Occup= 2.000000
  1       0.000141614634
  2       0.001096926915
  3      -0.000194067706
  4      -0.000475067783
  5       0.000035820513
  6      -0.004308269674
  7       0.000916099086
  8      -0.003834325069
  9      -0.001793658178
 10       0.001022072469
 11       0.000268267998
 12      -0.000567671359
 13       0.001794666628
 14      -0.000507137898
 15      -0.000012822886
 16       0.000813907121
 17      -0.000635236752
 18       0.000455797731
 19       0.000701828721
 20      -0.007387647213
 21      -0.001184603477
 22       0.004190010558
 23       0.002779104692
 24      -0.000185028537
 25       0.000964436349
 26      -0.001366754786
 27       0.000432253201
 28       0.000891156912
 29      -0.000035871305
 30      -0.000550002512
 31       0.000113133696
 32       0.000204523635
 33      -0.000180201009
 34       0.001254953131
 35      -0.000362238679
 36      -0.001284728960
 37       0.001086754924
 38      -0.000085925267
 39      -0.000138275451
 40      -0.000169449939
 41       0.000010720255
 42       0.000035597558
 43      -0.000261568198
 44      -0.001131341847
 45       0.000368001975
 46       0.000163097430
 47      -0.000183256501
 48       0.002419960189
 49      -0.001874269677
 50      -0.001152507902
 51       0.000728764178
 52      -0.000048881578
 53       0.000013223708
 54      -0.000055917681
 55       0.000078465544
 56      -0.000045165133
 57       0.000959165512
 58      -0.000603912251
 59       0.000455781027
 60       0.000167718720
 61      -0.000273115413
 62       0.006094844691
 63      -0.003914033433
 64      -0.002660471933
 65       0.001452178634
 66       0.000087307159
 67       0.000674420736
 68       0.000423819131
 69      -0.000325887485
 70      -0.000275371547
 71      -0.000015481544
 72       0.000005103752
 73       0.000145753588
 74      -0.000132468665
 75      -0.000045536333
 76      -0.001340139696
 77       0.000248691974
 78      -0.000282450565
 79      -0.000247836648
 80       0.000004701891
 81      -0.000008565136
 82      -0.000034975656
 83      -0.000047484355
 84       0.000119958044
 85      -0.000112245645
 86      -0.000489325942
 87       0.000345286552
 88       0.000062023714
 89       0.000184660403
 90      -0.000140075512
 91      -0.001418693742
 92       0.000647290393
 93      -0.000592928693
 94       0.000062159661
 95      -0.000107975963
 96      -0.000031022677
 97      -0.000048510274
 98      -0.000025189372
 99       0.995155611735
100       0.037132888271
101      -0.000913558098
102      -0.000603132774
103       0.001049123938
104      -0.012087580753
105      -0.008326844431
106      -0.002041161853
107       0.006587445014
108      -0.000415326556
109      -0.001288392169
110       0.001230859427
111      -0.001051002257
112      -0.000239629637
113       0.000091859020
114       0.001183773596
115      -0.000082341290
116      -0.000009517010
117       0.000026808520
118      -0.000527414402
119       0.000093372840
120      -0.000141652852
121      -0.000115433275
122       0.000024570050
123       0.000107100023
124      -0.000246792189
125       0.000026683771
126      -0.000026782262
127      -0.000010149397
128      -0.000049661324
129       0.000467411770
130      -0.000012408953
131       0.000012146401
132      -0.000022699024
133       0.000063167020
134       0.000194848010
135      -0.000046213667
136       0.000027434968
137      -0.000002785958
138      -0.000288433200
139       0.000490602953
140       0.000074931292
141      -0.000008748519
142       0.000016432450
143       0.000169249336
144       0.001094338801
145      -0.000104374975
146      -0.000012523800
147      -0.000030262246
148      -0.000137154938
149      -0.000642845196
150       0.000110723169
151       0.000067879240
152       0.000060710714
153      -0.000230606283
154       0.000359124455
155       0.000074240667
156       0.000079792426
157      -0.000054746960
158       0.000105923898
159       0.000798050835
160      -0.000005864933
161      -0.000022162127
162      -0.000016193595
163       0.000591097728
164       0.000048689153
165       0.000103734047
166       0.000261894458
167      -0.000048168444
 Sym=     1a
 Ene= -1.02188766702614E+01
 Spin= Alpha
 Occup= 2.000000
  1       0.000031574991
  2       0.000728251363
  3       0.000142203435
  4       0.000272717067
  5      -0.000072293452
  6      -0.002242512832
  7      -0.000297927872
  8      -0.001383699068
  9      -0.000053192153
 10       0.000076101719
 11       0.000224310951
 12      -0.000047407132
 13       0.000019725773
 14      -0.000064573678
 15       0.000006583851
 16       0.000287632955
 17       0.000091609917
 18      -0.000056481695
 19      -0.000083540462
 20       0.000372126382
 21       0.000603441230
 22       0.000989590054
 23      -0.000315589190
 24       0.000199683635
 25       0.000086742738
 26      -0.000178424120
 27       0.000286493358
 28      -0.000071791437
 29      -0.000000038915
 30       0.000439525290
 31       0.000065130118
 32      -0.000385852207
 33       0.000103474391
 34      -0.006778035407
 35      -0.000409094513
 36       0.002595779090
 37      -0.001155254151
 38      -0.000651299116
 39      -0.000052710062
 40      -0.000027806533
 41      -0.001055346328
 42      -0.000145973550
 43      -0.002141123361
 44       0.000875346111
 45       0.000014455126
 46       0.000017399260
 47       0.000070585153
 48      -0.008906273436
 49       0.004528921911
 50      -0.002612412643
 51       0.000999691109
 52      -0.000064251725
 53       0.000504387190
 54      -0.000068145144
 55       0.000333178186
 56      -0.000165894433
 57      -0.995540065769
 58      -0.040480466516
 59       0.000203997708
 60      -0.000033810021
 61      -0.000109725872
 62       0.042569998391
 63      -0.000429251053
 64       0.001131835729
 65       0.006902236921
 66      -0.000438078685
 67      -0.000120464707
 68      -0.000585798699
 69       0.000462316923
 70      -0.000109738106
 71       0.000379666907
 72       0.000907986568
 73      -0.000227737032
 74       0.000198700323
 75      -0.000071786808
 76      -0.002380273943
 77       0.001095297703
 78      -0.000698724065
 79       0.000654878872
 80       0.000014140190
 81      -0.000092976189
 82      -0.000023280935
 83      -0.000070060209
 84      -0.000024745104
 85       0.000355734917
 86       0.000945067397
 87      -0.000311800934
 88      -0.000046739263
 89      -0.000341303282
 90      -0.000747921658
 91       0.001836312308
 92       0.000072810908
 93       0.000237747693
 94       0.000066500433
 95      -0.000050383056
 96      -0.000001411350
 97      -0.000045852647
 98       0.000110039788
 99       0.000942407128
100       0.001373892623
101       0.000046735706
102       0.000019259530
103      -0.000214240526
104      -0.010849225536
105      -0.005783535185
106      -0.005369112439
107       0.003423013004
108       0.000219794390
109      -0.000664830310
110      -0.000358404090
111       0.000265181701
112       0.000284802110
113       0.000412037662
114       0.000315573048
115       0.000006641150
116      -0.000005875149
117       0.000163332477
118       0.000885738912
119      -0.003767376615