
                                 *****************
                                 * O   R   C   A *
                                 *****************

                                            #,                                       
                                            ###                                      
                                            ####                                     
                                            #####                                    
                                            ######                                   
                                           ########,                                 
                                     ,,################,,,,,                         
                               ,,#################################,,                 
                          ,,##########################################,,             
                       ,#########################################, ''#####,          
                    ,#############################################,,   '####,        
                  ,##################################################,,,,####,       
                ,###########''''           ''''###############################       
              ,#####''   ,,,,##########,,,,          '''####'''          '####       
            ,##' ,,,,###########################,,,                        '##       
           ' ,,###''''                  '''############,,,                           
         ,,##''                                '''############,,,,        ,,,,,,###''
      ,#''                                            '''#######################'''  
     '                                                          ''''####''''         
             ,#######,   #######,   ,#######,      ##                                
            ,#'     '#,  ##    ##  ,#'     '#,    #''#        ,####,    ,#,          
            ##       ##  ##   ,#'  ##            #'  '#       #'       ,# #          
            ##       ##  #######   ##           ,######,      #####,      #          
            '#,     ,#'  ##    ##  '#,     ,#' ,#      #,     #,   #      #          
             '#######'   ##     ##  '#######'  #'      '#     '####' #    #          



                #########################################################
                #                        -***-                          #
                #          Department of theory and spectroscopy        #
                #                                                       #
                #                      Frank Neese                      #
                #                                                       #
                #     Directorship, Architecture, Infrastructure        #
                #                    SHARK, DRIVERS                     #
                #        Core code/Algorithms in most modules           #
                #                                                       #
                #        Max Planck Institute fuer Kohlenforschung      #
                #                Kaiser Wilhelm Platz 1                 #
                #                 D-45470 Muelheim/Ruhr                 #
                #                      Germany                          #
                #                                                       #
                #                  All rights reserved                  #
                #                        -***-                          #
                #########################################################


                         Program Version 6.1.1  -  RELEASE   -
                                (GIT: $487d211c$)
                          ($2025-11-21 10:33:24 +0100$)
                                                                         
                                  - NO-DMRG VERSION -                    
                                                                         


 With contributions from (in alphabetic order):
[Max-Planck-Institut fuer Kohlenforschung]                               
  Daniel Aravena         : Magnetic Suceptibility                        
  Michael Atanasov       : Ab Initio Ligand Field Theory (pilot matlab implementation)
  Alexander A. Auer      : GIAO ZORA, VPT2 properties, NMR spectrum      
  Ute Becker             : All parallelization in ORCA, NUMFREQ, NUMCALC 
  Giovanni Bistoni       : ED, misc. LED, open-shell LED, HFLD           
  Dmytro Bykov           : pre 5.0 version of the SCF Hessian            
  Marcos Casanova-Páez   : Triplet and SCS-CIS(D). UHF-(DLPNO)-IP/EA/STEOM-CCSD. UHF-CVS-IP/STEOM-CCSD   
  Vijay G. Chilkuri      : MRCI spin determinant printing, contributions to CSF-ICE 
  Pauline Colinet        : FMM embedding                                 
  Dipayan Datta          : RHF DLPNO-CCSD density                        
  Achintya Kumar Dutta   : EOM-CC, STEOM-CC                              
  Nicolas Foglia         : Exact transition moments, OPA infrastructure, MCD improvements    
  Dmitry Ganyushin       : Spin-Orbit,Spin-Spin,Magnetic field MRCI      
  Miquel Garcia-Rates    : C-PCM and meta-GGA Hessian, CCSD/C-PCM, Gaussian charge scheme 
  Tiago L. C. Gouveia    : GS-ROHF, GS-ROCIS                             
  Yang Guo               : DLPNO-NEVPT2, F12-NEVPT2, CIM, IAO-localization        
  Andreas Hansen         : Spin unrestricted coupled pair/coupled cluster methods 
  Ingolf Harden          : AUTO-CI MPn and infrastructure                
  Benjamin Helmich-Paris : MC-RPA, TRAH-(SCF,CASSCF), AVAS, COSX integrals, SCF dyn. polar., MC-PDFT, srDFT 
  Lee Huntington         : MR-EOM, pCC                                   
  Robert Izsak           : Overlap fitted RIJCOSX, COSX-SCS-MP3, EOM     
  Riya Kayal             : Wick's Theorem for AUTO-CI, AUTO-CI UHF-CCSDT 
  Emily Kempfer          : AUTO-CI RHF CISDT and CCSDT, approximate NEVPT4
  Christian Kollmar      : KDIIS, OOCD, Brueckner-CCSD(T), CCSD density, CASPT2, CASPT2-K, improved NEVPT2 
  Axel Koslowski         : Symmetry handling                             
  Simone Kossmann        : meta-GGA functionals, TD-DFT gradient, OOMP2, (MP2 Hessian; deprecated post 5.0) 
  Lucas Lang             : DCDCAS, Hyperfine gauge corrections, ICE-SOC+SSC
  Marvin Lechner         : AUTO-CI (C++ implementation), FIC-MRCC        
  Spencer Leger          : CASSCF response                               
  Dagmar Lenk            : GEPOL surface, SMD, ORCA-2-JSON               
  Dimitrios Liakos       : Extrapolation schemes; Compound Job, Property file
  Dimitrios Manganas     : Further ROCIS development; embedding schemes. LFT, Crystal Embedding 
  Dimitrios Pantazis     : SARC Basis sets                               
  Anastasios Papadopoulos: AUTO-CI, single reference methods and gradients 
  Taras Petrenko         : pre 6.0 DFT Hessian and TD-DFT gradient,  ECA, NRVS 
  Petra Pikulova         : Analytic Raman intensities                    
  Peter Pinski           : DLPNO-MP2, DLPNO-MP2 Gradient                 
  Shashank Vittal Rao    : ES-AILFT, MagRelax                            
  Christoph Reimann      : Effective Core Potentials                     
  Marius Retegan         : Local ZFS, SOC                                
  Christoph Riplinger    : Optimizer, TS searches, QM/MM, DLPNO-CCSD(T), (RO)-DLPNO pert. Triples 
  Michael Roemelt        : Original ROCIS implementation, recursive CI coupling coefficients
  Masaaki Saitow         : Open-shell DLPNO-CCSD energy and density      
  Barbara Sandhoefer     : DKH picture change effects                    
  Yorick L. A. Schmerwitz: GMF and freeze-and-release deltaSCF, NEB S-IDPP initial path                    
  Kantharuban Sivalingam : CASSCF convergence/infrastructure, NEVPT2, NEVPT3, NEVPT4(SD), FIC-MRCI and CEPA variants
  Bernardo de Souza      : ESD, SOC TD-DFT                               
  Georgi L. Stoychev     : AutoAux, RI-MP2 NMR, DLPNO-MP2 response, X2C  
  Van Anh Tran           : RI-MP2 g-tensors                              
  Willem Van den Heuvel  : Paramagnetic NMR                              
  Zikuan Wang            : NOTCH, Electric field optimization            
  Frank Wennmohs         : Technical directorship and infrastructure     
  Hang Xu                : AUTO-CI-Response properties                   
                                                                         
[FACCTs GmbH]                                                            
  Markus Bursch, Nicolas Foglia, Miquel Garcia-Rates, Ingolf Harden, Hagen Neugebauer, Anastasios Papadopoulos, 
  Christoph Riplinger, Bernardo de Souza, Georgi L. Stoychev                                                    
                                                                 
  APM, various basis sets, CI-OPT, improved COSX, DLPNO-Multilevel,           
  DOCKER, DRACO, updates on ESD, Fragmentator, GOAT, IRC, LR-CPCM, L-BFGS, MBIS, meta-GGA TD-DFT gradient, ML-optimized integration grids, 
  MM, NACMEs, nearIR, NEB, NEB-TS, NL-DFT gradient (VV10), 2- and 3-layer-ONIOM, interface openCOSMO-RS, QMMM,   
  Crystal-QMMM, RESP, rigid body optimization, SF, symmetry and pop. for TD-DFT, various functionals, SOLVATOR                                   
                                                                         
[Other institutions]                                                     
  V. Asgeirsson          : NEB                                           
  Christoph Bannwarth    : sTDA-DFT, sTD-DFT, PBEh-3c, B97-3c, D3        
  Giovanni Bistoni       : ETS/NOCV, ADLD/ADEX, COVALED                  
  Martin Brehm           : Molecular dynamics                            
  Ronald Cardenas        : ETS/NOCV                                      
  Martina Colucci        : COVALED                                       
  Sebastian Ehlert       : rSCAN, r2SCAN, r2SCAN-3c, D4, dhf basis sets  
  Marvin Friede          : D4 for Fr, Ra, Ac-Lr                          
  Lars Goerigk           : TD-DFT with DH, B97 family of functionals     
  Stefan Grimme          : VdW corrections, initial TS optimization, DFT functionals, gCP, sTDA/sTD-DF 
  Waldemar Hujo          : DFT-NL                                        
  H. Jonsson             : NEB                                           
  Holger Kruse           : gCP                                           
  Marcel Mueller         : wB97X-3c, vDZP basis set                      
  Hagen Neugebauer       : wr2SCAN, Native XTB                           
  Gianluca Regni         : ADLD/ADEX                                     
  Tobias Risthaus        : pre 6.0 range-separated hybrid DFT and stability analysis
  Lukas Wittmann         : regularized MP2, r2SCAN double-hybrids, wr2SCAN        
                                                                         
We gratefully acknowledge several colleagues who have allowed us to      
interface, adapt or use parts of their codes:                            
  Ed Valeev, F. Pavosevic, A. Kumar             : LibInt (2-el integral package), F12 methods 
  Garnet Chan, S. Sharma, J. Yang, R. Olivares  : DMRG                   
  Ulf Ekstrom                                   : XCFun DFT Library      
  Mihaly Kallay                                 : mrcc  (arbitrary order and MRCC methods)
  Frank Weinhold                                : gennbo (NPA and NBO analysis)           
  Simon Mueller                                 : openCOSMO-RS                            
  Christopher J. Cramer and Donald G. Truhlar   : smd solvation model                     
  S Lehtola, MJT Oliveira, MAL Marques          : LibXC Library                           
  Liviu Ungur et al                             : ANISO software                          


 Your calculation uses the libint2 library for the computation of 2-el integrals
 For citations please refer to: http://libint.valeyev.net

 Your ORCA version has been built with support for libXC version: 7.0.0
 For citations please refer to: https://libxc.gitlab.io

 This ORCA versions uses:
   CBLAS   interface :  Fast vector & matrix operations
   LAPACKE interface :  Fast linear algebra routines
   SCALAPACK package :  Parallel linear algebra routines
   Shared memory     :  Shared parallel matrices
   BLAS/LAPACK       :  OpenBLAS 0.3.29  USE64BITINT DYNAMIC_ARCH NO_AFFINITY SkylakeX SINGLE_THREADED
        Core in use  :  SkylakeX
   Copyright (c) 2011-2014, The OpenBLAS Project


  ***********************************
  * Starting time: Sun Mar 22 20:16:48 2026
  * Host name:     97d0b54d9bfa
  * Process ID:    54
  * Working dir.:  /kaggle/working
  ***********************************

NOTE: MaxCore=3000 MB was set to SCF,MP2,MDCI,CIPSI,MRCI,RASCI and CIS
      => If you want to overwrite this, your respective input block should be placed after the MaxCore statement
Your calculation utilizes the atom-pairwise dispersion correction
with the Becke-Johnson damping scheme (D3BJ)


Your calculation utilizes the SMD solvation module
Please cite in your paper:
Marenich, A. V.; Cramer, C. J.; Truhlar, D. G. J. Phys. Chem. B 2009, 113, 6378 

Warning: RI is on but no J-basis has been assigned. Assigning Def2/J (nothing to worry about!)
================================================================================

----- Orbital basis set information -----
Your calculation utilizes the basis: 6-31G(d,p)
   H-He, Li-Ne : W. J. Hehre, R. Ditchfield and J.A. Pople, J. Chem. Phys. 56, 2257 (1972).
                 Note: He and Ne are unpublished basis sets taken from the Gaussian program.
                 Note: Li and B from J. D. Dill and J. A. Pople, J. Chem. Phys. 62, 2921 (1975).
   Na - Ar     : M. M. Francl, W. J. Pietro, W. J. Hehre, J. S. Binkley, M. S. Gordon, 
                 D. J. DeFrees and J. A. Pople, J. Chem. Phys. 77, 3654 (1982).
   K - Zn      : V. A. Rassolov, J. A. Pople, M. A. Ratner, and T. L. Windus, J. Chem. Phys. 109, 1223 (1998).

----- AuxJ basis set information -----
Your calculation utilizes the auxiliary basis: def2/J
   H-Rn: F. Weigend, Phys. Chem. Chem. Phys. 8, 1057 (2006).
   Fr-Lr: K. Eichkorn, F. Weigend, O. Treutler, R. Ahlrichs; Theor. Chem. Acc. 97, 119 (1997).

================================================================================
                                        WARNINGS
                       Please study these warnings very carefully!
================================================================================


WARNING: Geometry Optimization
  ===> : Switching off AutoStart
         For restart on a previous wavefunction, please use MOREAD

================================================================================
                                       INPUT FILE
================================================================================
NAME = /kaggle/working/Bta-1/Bta_InterFrag.inp
|  1> 
|  2> !RKS B3LYP 6-31G(d,p) TightSCF Opt D3BJ
|  3>  
|  4> %pal nprocs 2 end
|  5> %maxcore 3000
|  6> 
|  7> %cpcm
|  8>   smd true
|  9>   SMDsolvent "WATER"
| 10>   end
| 11> 
| 12> %scf
| 13>   MaxIter 1000
| 14>   SOSCF Start 0.00033
| 15>   end
| 16> end
| 17> 
| 18> %output
| 19>   PrintLevel Normal
| 20>   Print[ P_OrbEn ] 2        # print ALL orbital energies (not just up to LUMO+9) :contentReference[oaicite:10]{index=10}
| 21>   XYZFile true              # writes basename.xyz (handy for reuse) :contentReference[oaicite:11]{index=11}
| 22>   end
| 23> 
| 24> *xyz 0 1
| 25> O        3.163200000     -0.856200000      0.548100000
| 26> O        2.546600000      0.865100000     -0.797300000
| 27> N        0.003100000      1.468200000      0.763600000
| 28> C       -1.739500000     -0.139600000     -0.066300000
| 29> C       -0.261800000      0.387900000     -0.201400000
| 30> C       -2.048500000     -1.203700000     -1.137700000
| 31> C       -2.022700000     -0.756800000      1.319300000
| 32> C       -2.737500000      1.023800000     -0.282400000
| 33> C        0.846900000     -0.670000000     -0.013800000
| 34> C        2.250100000     -0.118700000     -0.132000000
| 35> H       -0.147600000      0.819900000     -1.204900000
| 36> H       -1.442600000     -2.104700000     -0.996600000
| 37> H       -3.099400000     -1.513600000     -1.102600000
| 38> H       -1.848700000     -0.817900000     -2.143500000
| 39> H       -1.831700000     -0.043000000      2.127400000
| 40> H       -1.406500000     -1.643600000      1.498900000
| 41> H       -3.070200000     -1.070000000      1.402000000
| 42> H       -2.535500000      1.546800000     -1.223800000
| 43> H       -3.769300000      0.655000000     -0.325500000
| 44> H       -2.700900000      1.756200000      0.530700000
| 45> H        0.756800000     -1.128800000      0.977800000
| 46> H        0.752900000     -1.461500000     -0.764300000
| 47> H       -0.627900000      2.249200000      0.592900000
| 48> H        0.939600000      1.844500000      0.623400000
| 49> H        4.070900000     -0.498000000      0.447900000
| 50> *
| 51> 
| 52>                          ****END OF INPUT****
================================================================================

                       *****************************
                       * Geometry Optimization Run *
                       *****************************

Geometry optimization settings:
Update method            Update   .... BFGS
Choice of coordinates    CoordSys .... (2022) Redundant Internals
Initial Hessian          InHess   .... Almloef's Model
Max. no of cycles        MaxIter  .... 75

Convergence Tolerances:
Energy Change            TolE     ....  5.0000e-06 Eh
Max. Gradient            TolMAXG  ....  3.0000e-04 Eh/bohr
RMS Gradient             TolRMSG  ....  1.0000e-04 Eh/bohr
Max. Displacement        TolMAXD  ....  4.0000e-03 bohr
RMS Displacement         TolRMSD  ....  2.0000e-03 bohr
Strict Convergence                .... False

------------------------------------------------------------------------------
                        ORCA OPTIMIZATION COORDINATE SETUP
------------------------------------------------------------------------------

The optimization will be done in redundant internal coordinates (2022)
Making redundant internal coordinates   ...  (2022 redundants) done
Evaluating the initial hessian          ...  (Almloef) done
Evaluating the coordinates              ...  done
Calculating the B-matrix                .... done
Calculating the G-matrix                .... done
The number of degrees of freedom        ....  110

    -----------------------------------------------------------------
                    Redundant Internal Coordinates


    -----------------------------------------------------------------
         Definition                    Initial Value    Approx d2E/dq
    -----------------------------------------------------------------
      1. B(C   4,C   3)                  1.5748         0.316844   
      2. B(C   4,N   2)                  1.4726         0.413190   
      3. B(C   5,C   3)                  1.5413         0.358349   
      4. B(C   6,C   3)                  1.5431         0.356078   
      5. B(C   7,C   3)                  1.5480         0.349713   
      6. B(C   8,C   4)                  1.5439         0.355005   
      7. B(C   9,O   0)                  1.3565         0.632795   
      8. B(C   9,C   8)                  1.5122         0.398759   
      9. B(C   9,O   1)                  1.2241         1.029373   
     10. B(H  10,C   4)                  1.0985         0.349044   
     11. B(H  11,C   5)                  1.0949         0.353665   
     12. B(H  12,C   5)                  1.0962         0.351987   
     13. B(H  13,C   5)                  1.0956         0.352734   
     14. B(H  14,C   6)                  1.0950         0.353551   
     15. B(H  15,C   6)                  1.0947         0.353933   
     16. B(H  16,C   6)                  1.0964         0.351675   
     17. B(H  17,C   7)                  1.0957         0.352633   
     18. B(H  18,C   7)                  1.0966         0.351503   
     19. B(H  19,C   7)                  1.0949         0.353631   
     20. B(H  20,C   8)                  1.0963         0.351854   
     21. B(H  21,C   8)                  1.0948         0.353823   
     22. B(H  22,N   2)                  1.0185         0.419467   
     23. B(H  23,O   1)                  2.3580         0.010000   
     24. B(H  23,N   2)                  1.0190         0.418689   
     25. B(H  24,O   0)                  0.9810         0.481437   
     26. A(C   9,O   0,H  24)          111.9078         0.366541   
     27. A(C   4,N   2,H  23)          110.2483         0.333176   
     28. A(C   4,N   2,H  22)          109.9550         0.333279   
     29. A(H  22,N   2,H  23)          105.2581         0.300175   
     30. A(C   4,C   3,C   6)          112.5334         0.350458   
     31. A(C   6,C   3,C   7)          107.9175         0.356365   
     32. A(C   5,C   3,C   7)          107.0122         0.356750   
     33. A(C   4,C   3,C   7)          109.9520         0.349393   
     34. A(C   5,C   3,C   6)          108.1345         0.357845   
     35. A(C   4,C   3,C   5)          111.0834         0.350835   
     36. A(C   3,C   4,H  10)          107.9173         0.314113   
     37. A(N   2,C   4,H  10)          106.9443         0.326088   
     38. A(N   2,C   4,C   3)          110.9962         0.357186   
     39. A(N   2,C   4,C   8)          107.0903         0.364178   
     40. A(C   8,C   4,H  10)          107.8077         0.319983   
     41. A(C   3,C   4,C   8)          115.7146         0.350279   
     42. A(H  12,C   5,H  13)          107.6840         0.288864   
     43. A(H  11,C   5,H  13)          107.8878         0.289079   
     44. A(C   3,C   5,H  13)          111.0060         0.321025   
     45. A(H  11,C   5,H  12)          107.0824         0.288983   
     46. A(C   3,C   5,H  12)          111.4141         0.320914   
     47. A(C   3,C   5,H  11)          111.5673         0.321164   
     48. A(H  15,C   6,H  16)          107.0970         0.288977   
     49. A(H  14,C   6,H  16)          107.2888         0.288929   
     50. A(C   3,C   6,H  16)          110.9360         0.320534   
     51. A(H  14,C   6,H  15)          107.9875         0.289218   
     52. A(C   3,C   6,H  15)          111.5944         0.320869   
     53. A(C   3,C   6,H  14)          111.7115         0.320813   
     54. A(H  17,C   7,H  18)          107.4713         0.288789   
     55. A(C   3,C   7,H  18)          111.0604         0.319565   
     56. A(C   3,C   7,H  17)          111.0893         0.319733   
     57. A(H  18,C   7,H  19)          106.5949         0.288917   
     58. A(H  17,C   7,H  19)          108.2150         0.289062   
     59. A(C   3,C   7,H  19)          112.1790         0.319880   
     60. A(C   4,C   8,C   9)          114.0193         0.364238   
     61. A(H  20,C   8,H  21)          108.0852         0.288986   
     62. A(C   9,C   8,H  21)          106.8372         0.326871   
     63. A(C   4,C   8,H  21)          110.5141         0.320695   
     64. A(C   9,C   8,H  20)          107.4289         0.326570   
     65. A(C   4,C   8,H  20)          109.7338         0.320402   
     66. A(O   1,C   9,C   8)          124.0718         0.436348   
     67. A(O   0,C   9,C   8)          112.7799         0.400127   
     68. A(O   0,C   9,O   1)          123.1195         0.471445   
     69. D(C   8,C   4,C   3,C   7)   -179.7968         0.010000   
     70. D(C   8,C   4,C   3,C   5)    -61.5320         0.010000   
     71. D(C   8,C   4,N   2,H  23)     56.7307         0.014562   
     72. D(C   3,C   4,N   2,H  23)   -176.0969         0.014562   
     73. D(C   8,C   4,C   3,C   6)     59.8746         0.010000   
     74. D(C   8,C   4,N   2,H  22)    172.3478         0.014562   
     75. D(N   2,C   4,C   3,C   7)     57.9132         0.010000   
     76. D(N   2,C   4,C   3,C   6)    -62.4154         0.010000   
     77. D(C   3,C   4,N   2,H  22)    -60.4799         0.014562   
     78. D(H  10,C   4,N   2,H  22)     56.9980         0.014562   
     79. D(N   2,C   4,C   3,C   5)    176.1780         0.010000   
     80. D(H  12,C   5,C   3,C   4)   -175.2359         0.010309   
     81. D(H  11,C   5,C   3,C   6)    -58.8084         0.010309   
     82. D(H  11,C   5,C   3,C   4)     65.1404         0.010309   
     83. D(H  11,C   5,C   3,C   7)   -174.8325         0.010309   
     84. D(H  12,C   5,C   3,C   7)    -55.2088         0.010309   
     85. D(H  12,C   5,C   3,C   6)     60.8152         0.010309   
     86. D(H  15,C   6,C   3,C   5)     59.6165         0.010188   
     87. D(H  14,C   6,C   3,C   7)    -63.9472         0.010188   
     88. D(H  14,C   6,C   3,C   5)   -179.3802         0.010188   
     89. D(H  14,C   6,C   3,C   4)     57.5472         0.010188   
     90. D(H  15,C   6,C   3,C   7)    175.0495         0.010188   
     91. D(H  15,C   6,C   3,C   4)    -63.4561         0.010188   
     92. D(H  18,C   7,C   3,C   6)    -64.4854         0.010000   
     93. D(H  18,C   7,C   3,C   5)     51.6828         0.010000   
     94. D(H  18,C   7,C   3,C   4)    172.4320         0.010000   
     95. D(H  17,C   7,C   3,C   6)    175.9556         0.010000   
     96. D(H  17,C   7,C   3,C   5)    -67.8761         0.010000   
     97. D(H  17,C   7,C   3,C   4)     52.8730         0.010000   
     98. D(C   9,C   8,C   4,C   3)   -179.1821         0.010132   
     99. D(C   9,C   8,C   4,N   2)    -54.8403         0.010132   
    100. D(H  20,C   8,C   4,H  10)   -179.5221         0.010132   
    101. D(H  20,C   8,C   4,C   3)    -58.6359         0.010132   
    102. D(H  20,C   8,C   4,N   2)     65.7059         0.010132   
    103. D(C   9,C   8,C   4,H  10)     59.9317         0.010132   
    104. D(O   1,C   9,C   8,H  20)   -149.3710         0.011804   
    105. D(O   1,C   9,C   8,C   4)    -27.5446         0.011804   
    106. D(O   0,C   9,C   8,H  21)    -83.2499         0.011804   
    107. D(O   0,C   9,C   8,H  20)     32.5320         0.011804   
    108. D(O   0,C   9,C   8,C   4)    154.3584         0.011804   
    109. D(C   8,C   9,O   0,H  24)    178.8402         0.029468   
    110. D(O   1,C   9,O   0,H  24)      0.7223         0.029468   
    -----------------------------------------------------------------

Number of atoms                         .... 25
Number of degrees of freedom            .... 110


         *************************************************************
         *                GEOMETRY OPTIMIZATION CYCLE   1            *
         *************************************************************
---------------------------------
CARTESIAN COORDINATES (ANGSTROEM)
---------------------------------
  O      3.163200   -0.856200    0.548100
  O      2.546600    0.865100   -0.797300
  N      0.003100    1.468200    0.763600
  C     -1.739500   -0.139600   -0.066300
  C     -0.261800    0.387900   -0.201400
  C     -2.048500   -1.203700   -1.137700
  C     -2.022700   -0.756800    1.319300
  C     -2.737500    1.023800   -0.282400
  C      0.846900   -0.670000   -0.013800
  C      2.250100   -0.118700   -0.132000
  H     -0.147600    0.819900   -1.204900
  H     -1.442600   -2.104700   -0.996600
  H     -3.099400   -1.513600   -1.102600
  H     -1.848700   -0.817900   -2.143500
  H     -1.831700   -0.043000    2.127400
  H     -1.406500   -1.643600    1.498900
  H     -3.070200   -1.070000    1.402000
  H     -2.535500    1.546800   -1.223800
  H     -3.769300    0.655000   -0.325500
  H     -2.700900    1.756200    0.530700
  H      0.756800   -1.128800    0.977800
  H      0.752900   -1.461500   -0.764300
  H     -0.627900    2.249200    0.592900
  H      0.939600    1.844500    0.623400
  H      4.070900   -0.498000    0.447900

----------------------------
CARTESIAN COORDINATES (A.U.)
----------------------------
  NO LB      ZA    FRAG     MASS         X           Y           Z
   0 O     8.0000    0    15.999    5.977582   -1.617984    1.035759
   1 O     8.0000    0    15.999    4.812377    1.634802   -1.506679
   2 N     7.0000    0    14.007    0.005858    2.774496    1.442995
   3 C     6.0000    0    12.011   -3.287179   -0.263806   -0.125289
   4 C     6.0000    0    12.011   -0.494730    0.733025   -0.380591
   5 C     6.0000    0    12.011   -3.871104   -2.274663   -2.149941
   6 C     6.0000    0    12.011   -3.822349   -1.430145    2.493116
   7 C     6.0000    0    12.011   -5.173125    1.934702   -0.533659
   8 C     6.0000    0    12.011    1.600409   -1.266117   -0.026078
   9 C     6.0000    0    12.011    4.252073   -0.224310   -0.249444
  10 H     1.0000    0     1.008   -0.278924    1.549386   -2.276931
  11 H     1.0000    0     1.008   -2.726119   -3.977307   -1.883301
  12 H     1.0000    0     1.008   -5.857017   -2.860289   -2.083612
  13 H     1.0000    0     1.008   -3.493537   -1.545607   -4.050628
  14 H     1.0000    0     1.008   -3.461411   -0.081258    4.020203
  15 H     1.0000    0     1.008   -2.657900   -3.105954    2.832511
  16 H     1.0000    0     1.008   -5.801837   -2.022007    2.649396
  17 H     1.0000    0     1.008   -4.791401    2.923028   -2.312647
  18 H     1.0000    0     1.008   -7.122945    1.237771   -0.615106
  19 H     1.0000    0     1.008   -5.103961    3.318737    1.002878
  20 H     1.0000    0     1.008    1.430145   -2.133123    1.847774
  21 H     1.0000    0     1.008    1.422775   -2.761835   -1.444318
  22 H     1.0000    0     1.008   -1.186559    4.250372    1.120419
  23 H     1.0000    0     1.008    1.775587    3.485600    1.178055
  24 H     1.0000    0     1.008    7.692886   -0.941084    0.846408

--------------------------------
INTERNAL COORDINATES (ANGSTROEM)
--------------------------------
 O      0   0   0     0.000000000000     0.00000000     0.00000000
 O      1   0   0     2.270059560893     0.00000000     0.00000000
 N      2   1   0     3.044590394454    94.20186764     0.00000000
 C      3   2   1     2.512052867676   106.46132700   277.31960353
 C      3   2   1     1.472564124240    70.67005808   275.77961564
 C      4   3   2     1.541326626643   144.15259792   351.42022747
 C      4   3   2     1.543057173276    94.97169554   122.25587310
 C      4   3   2     1.547967302626    90.70640902   230.30934200
 C      5   3   2     1.543878835919   107.09028773    50.30384434
 C      2   1   3     1.224091001519    30.03250635   320.51362958
 H      5   3   2     1.098488912097   106.94434664   294.95406755
 H      6   4   3     1.094908681124   111.56732577    68.71182924
 H      6   4   3     1.096202914610   111.41414238   188.33547971
 H      6   4   3     1.095625538220   111.00596601   308.34285030
 H      7   4   3     1.094996369857   111.71150225    28.41019959
 H      7   4   3     1.094702169542   111.59442911   267.40691523
 H      7   4   3     1.096444152705   110.93595361   148.06868078
 H      8   4   3     1.095703865102   111.08925383    80.50001764
 H      8   4   3     1.096577534878   111.06042454   200.05896376
 H      8   4   3     1.094934212636   112.17903160   319.23416413
 H      9   5   3     1.096305618886   109.73379621    65.70586630
 H      9   5   3     1.094786965578   110.51408885   184.80678562
 H      3   2   1     1.018459861752   125.70189769   174.63468702
 H      3   2   1     1.018965151514    40.07591962   105.16772821
 H      1   2   3     0.980951869360    85.06170468   220.15900133

---------------------------
INTERNAL COORDINATES (A.U.)
---------------------------
 O      0   0   0     0.000000000000     0.00000000     0.00000000
 O      1   0   0     4.289790877777     0.00000000     0.00000000
 N      2   1   0     5.753442035485    94.20186764     0.00000000
 C      3   2   1     4.747091953839   106.46132700   277.31960353
 C      3   2   1     2.782742909452    70.67005808   275.77961564
 C      4   3   2     2.912685207277   144.15259792   351.42022747
 C      4   3   2     2.915955466475    94.97169554   122.25587310
 C      4   3   2     2.925234266228    90.70640902   230.30934200
 C      5   3   2     2.917508183845   107.09028773    50.30384434
 C      2   1   3     2.313196755868    30.03250635   320.51362958
 H      5   3   2     2.075843205012   106.94434664   294.95406755
 H      6   4   3     2.069077548977   111.56732577    68.71182924
 H      6   4   3     2.071523295820   111.41414238   188.33547971
 H      6   4   3     2.070432212566   111.00596601   308.34285030
 H      7   4   3     2.069243256668   111.71150225    28.41019959
 H      7   4   3     2.068687298644   111.59442911   267.40691523
 H      7   4   3     2.071979169751   110.93595361   148.06868078
 H      8   4   3     2.070580228922   111.08925383    80.50001764
 H      8   4   3     2.072231225531   111.06042454   200.05896376
 H      8   4   3     2.069125796542   112.17903160   319.23416413
 H      9   5   3     2.071717378773   109.73379621    65.70586630
 H      9   5   3     2.068847539930   110.51408885   184.80678562
 H      3   2   1     1.924610217103   125.70189769   174.63468702
 H      3   2   1     1.925565076371    40.07591962   105.16772821
 H      1   2   3     1.853730383648    85.06170468   220.15900133

---------------------
BASIS SET INFORMATION
---------------------
There are 4 groups of distinct atoms

 Group   1 Type O   : 10s4p1d contracted to 3s2p1d pattern {631/31/1}
 Group   2 Type N   : 10s4p1d contracted to 3s2p1d pattern {631/31/1}
 Group   3 Type C   : 10s4p1d contracted to 3s2p1d pattern {631/31/1}
 Group   4 Type H   : 4s1p contracted to 2s1p pattern {31/1}

Atom   0O    basis set group =>   1
Atom   1O    basis set group =>   1
Atom   2N    basis set group =>   2
Atom   3C    basis set group =>   3
Atom   4C    basis set group =>   3
Atom   5C    basis set group =>   3
Atom   6C    basis set group =>   3
Atom   7C    basis set group =>   3
Atom   8C    basis set group =>   3
Atom   9C    basis set group =>   3
Atom  10H    basis set group =>   4
Atom  11H    basis set group =>   4
Atom  12H    basis set group =>   4
Atom  13H    basis set group =>   4
Atom  14H    basis set group =>   4
Atom  15H    basis set group =>   4
Atom  16H    basis set group =>   4
Atom  17H    basis set group =>   4
Atom  18H    basis set group =>   4
Atom  19H    basis set group =>   4
Atom  20H    basis set group =>   4
Atom  21H    basis set group =>   4
Atom  22H    basis set group =>   4
Atom  23H    basis set group =>   4
Atom  24H    basis set group =>   4
---------------------------------
AUXILIARY/J BASIS SET INFORMATION
---------------------------------
There are 4 groups of distinct atoms

 Group   1 Type O   : 12s5p4d2f1g contracted to 6s4p3d1f1g pattern {711111/2111/211/2/1}
 Group   2 Type N   : 12s5p4d2f1g contracted to 6s4p3d1f1g pattern {711111/2111/211/2/1}
 Group   3 Type C   : 12s5p4d2f1g contracted to 6s4p3d1f1g pattern {711111/2111/211/2/1}
 Group   4 Type H   : 5s2p1d contracted to 3s1p1d pattern {311/2/1}

Atom   0O    basis set group =>   1
Atom   1O    basis set group =>   1
Atom   2N    basis set group =>   2
Atom   3C    basis set group =>   3
Atom   4C    basis set group =>   3
Atom   5C    basis set group =>   3
Atom   6C    basis set group =>   3
Atom   7C    basis set group =>   3
Atom   8C    basis set group =>   3
Atom   9C    basis set group =>   3
Atom  10H    basis set group =>   4
Atom  11H    basis set group =>   4
Atom  12H    basis set group =>   4
Atom  13H    basis set group =>   4
Atom  14H    basis set group =>   4
Atom  15H    basis set group =>   4
Atom  16H    basis set group =>   4
Atom  17H    basis set group =>   4
Atom  18H    basis set group =>   4
Atom  19H    basis set group =>   4
Atom  20H    basis set group =>   4
Atom  21H    basis set group =>   4
Atom  22H    basis set group =>   4
Atom  23H    basis set group =>   4
Atom  24H    basis set group =>   4


           ************************************************************
           *        Program running with 2 parallel MPI-processes     *
           *              working on a common directory               *
           ************************************************************
------------------------------------------------------------------------------
                             ORCA STARTUP CALCULATIONS
                           -- RI-GTO INTEGRALS CHOSEN --
------------------------------------------------------------------------------
------------------------------------------------------------------------------
                   ___                                                        
                  /   \      - P O W E R E D   B Y -                         
                 /     \                                                     
                 |  |  |   _    _      __       _____    __    __             
                 |  |  |  | |  | |    /  \     |  _  \  |  |  /  |          
                  \  \/   | |  | |   /    \    | | | |  |  | /  /          
                 / \  \   | |__| |  /  /\  \   | |_| |  |  |/  /          
                |  |  |   |  __  | /  /__\  \  |    /   |      \           
                |  |  |   | |  | | |   __   |  |    \   |  |\   \          
                \     /   | |  | | |  |  |  |  | |\  \  |  | \   \       
                 \___/    |_|  |_| |__|  |__|  |_| \__\ |__|  \__/        
                                                                              
                      - O R C A' S   B I G   F R I E N D -                    
                                      &                                       
                       - I N T E G R A L  F E E D E R -                       
                                                                              
 v1 FN, 2020, v2 2021, v3 2022-2024                                           
------------------------------------------------------------------------------


----------------------
SHARK INTEGRAL PACKAGE
----------------------

Number of atoms                             ...     25
Number of basis functions                   ...    215
Number of shells                            ...    105
Maximum angular momentum                    ...      2
Integral batch strategy                     ... SHARK/LIBINT Hybrid
RI-J (if used) integral strategy            ... SPLIT-RIJ (Revised 2003 algorithm where possible)
Printlevel                                  ...      1
Contraction scheme used                     ... SEGMENTED contraction
Prescreening option                         ... SCHWARTZ
   Thresh                                   ... 2.500e-11
   Tcut                                     ... 2.500e-12
   Tpresel                                  ... 2.500e-12 
Coulomb Range Separation                    ... NOT USED
Exchange Range Separation                   ... NOT USED
Multipole approximations                    ... NOT USED
Finite Nucleus Model                        ... NOT USED
CABS basis                                  ... NOT available
Auxiliary Coulomb fitting basis             ... AVAILABLE
   # of basis functions in Aux-J            ...    655
   # of shells in Aux-J                     ...    225
   Maximum angular momentum in Aux-J        ...      4
Auxiliary J/K fitting basis                 ... NOT available
Auxiliary Correlation fitting basis         ... NOT available
Auxiliary 'external' fitting basis          ... NOT available

Checking pre-screening integrals            ... done (  0.0 sec) Dimension = 105
   => SHARK Basis and OBASIS are compatible. Storing Pre-screening
Shell pair information
Shell pair cut-off parameter TPreSel        ...   2.5e-12
Total number of shell pairs                 ...      5565
Shell pairs after pre-screening             ...      4924
Total number of primitive shell pairs       ...     25680
Primitive shell pairs kept                  ...     14952
          la=0 lb=0:   1641 shell pairs
          la=1 lb=0:   1859 shell pairs
          la=1 lb=1:    548 shell pairs
          la=2 lb=0:    526 shell pairs
          la=2 lb=1:    303 shell pairs
          la=2 lb=2:     47 shell pairs

Checking whether 4 symmetric matrices of dimension 215 fit in memory
:Max Core in MB      =   3000.00
 MB in use           =      9.94
 MB left             =   2990.06
 MB needed           =      0.71
 Data fit in memory  = YES
Calculating RI/J V-Matrix + Cholesky decomp.... done (  0.0 sec)
Calculating Nuclear repulsion               ... done (  0.0 sec) ENN=    578.714355677007 Eh

Diagonalization of the overlap matrix:
Smallest eigenvalue                        ... 2.789e-03
Time for diagonalization                   ...    0.006 sec
Threshold for overlap eigenvalues          ... 1.000e-07
Number of eigenvalues below threshold      ... 0
Time for construction of square roots      ...    0.002 sec
Total time needed                          ...    0.009 sec

-------------------
DFT GRID GENERATION
-------------------

General Integration Accuracy     IntAcc      ... 4.388
Radial Grid Type                 RadialGrid  ... OptM3 with GC (2021)
Angular Grid (max. ang.)         AngularGrid ... 4 (Lebedev-302)
Angular grid pruning method      GridPruning ... 4 (adaptive)
Weight generation scheme         WeightScheme... mBecke (2022)
Basis function cutoff            BFCut       ... 1.0000e-11
Integration weight cutoff        WCut        ... 1.0000e-14
Partially contracted basis set               ... off
Rotationally invariant grid construction     ... off
Angular grids for H and He will be reduced by one unit

Total number of grid points                  ...   107680
Total number of batches                      ...     1696
Average number of points per batch           ...       63
Average number of grid points per atom       ...     4307

--------------------
COSX GRID GENERATION
--------------------

GRIDX 1
-------
General Integration Accuracy     IntAcc      ... 3.816
Radial Grid Type                 RadialGrid  ... OptM3 with GC (2021)
Angular Grid (max. ang.)         AngularGrid ... 1 (Lebedev-50)
Angular grid pruning method      GridPruning ... 4 (adaptive)
Weight generation scheme         WeightScheme... mBecke (2022)
Basis function cutoff            BFCut       ... 1.0000e-11
Integration weight cutoff        WCut        ... 1.0000e-14
Partially contracted basis set               ... on
Rotationally invariant grid construction     ... off
Angular grids for H and He will be reduced by one unit

Total number of grid points                  ...    13761
Total number of batches                      ...      120
Average number of points per batch           ...      114
Average number of grid points per atom       ...      550
UseSFitting                                  ... on

GRIDX 2
-------
General Integration Accuracy     IntAcc      ... 4.020
Radial Grid Type                 RadialGrid  ... OptM3 with GC (2021)
Angular Grid (max. ang.)         AngularGrid ... 2 (Lebedev-110)
Angular grid pruning method      GridPruning ... 4 (adaptive)
Weight generation scheme         WeightScheme... mBecke (2022)
Basis function cutoff            BFCut       ... 1.0000e-11
Integration weight cutoff        WCut        ... 1.0000e-14
Partially contracted basis set               ... on
Rotationally invariant grid construction     ... off
Angular grids for H and He will be reduced by one unit

Total number of grid points                  ...    28884
Total number of batches                      ...      240
Average number of points per batch           ...      120
Average number of grid points per atom       ...     1155
UseSFitting                                  ... on

GRIDX 3
-------
General Integration Accuracy     IntAcc      ... 4.338
Radial Grid Type                 RadialGrid  ... OptM3 with GC (2021)
Angular Grid (max. ang.)         AngularGrid ... 3 (Lebedev-194)
Angular grid pruning method      GridPruning ... 4 (adaptive)
Weight generation scheme         WeightScheme... mBecke (2022)
Basis function cutoff            BFCut       ... 1.0000e-11
Integration weight cutoff        WCut        ... 1.0000e-14
Partially contracted basis set               ... on
Rotationally invariant grid construction     ... off
Angular grids for H and He will be reduced by one unit

Total number of grid points                  ...    62948
Total number of batches                      ...      506
Average number of points per batch           ...      124
Average number of grid points per atom       ...     2518
UseSFitting                                  ... on
Grids setup in   2.3 sec
Initializing property integral containers    ... done (  0.0 sec)

SHARK setup successfully completed in   2.6 seconds

Maximum memory used throughout the entire STARTUP-calculation: 37.1 MB


           ************************************************************
           *        Program running with 2 parallel MPI-processes     *
           *              working on a common directory               *
           ************************************************************
-------------------------------------------------------------------------------
                                 ORCA GUESS
                   Start orbitals & Density for SCF / CASSCF
-------------------------------------------------------------------------------

------------
SCF SETTINGS
------------
Hamiltonian:
 Density Functional     Method          .... DFT(GTOs)
 Exchange Functional    Exchange        .... B88
   X-Alpha parameter    XAlpha          ....  0.666667
   Becke's b parameter  XBeta           ....  0.004200
 Correlation Functional Correlation     .... LYP
 LDA part of GGA corr.  LDAOpt          .... VWN-5
 Gradients option       PostSCFGGA      .... off
 Hybrid DFT is turned on
   Fraction HF Exchange ScalHFX         ....  0.200000
   Scaling of DF-GGA-X  ScalDFX         ....  0.720000
   Scaling of DF-GGA-C  ScalDFC         ....  0.810000
   Scaling of DF-LDA-C  ScalLDAC        ....  1.000000
   Perturbative correction              ....  0.000000
   NL short-range parameter             ....  4.800000
 RI-approximation to the Coulomb term is turned on
   Number of AuxJ basis functions       .... 655
   RIJ-COSX (HFX calculated with COS-X)).... on


General Settings:
 Integral files         IntName         .... /kaggle/working/Bta-1/Bta_InterFrag
 Hartree-Fock type      HFTyp           .... RHF
 Total Charge           Charge          ....    0
 Multiplicity           Mult            ....    1
 Number of Electrons    NEL             ....   80
 Basis Dimension        Dim             ....  215
 Nuclear Repulsion      ENuc            ....    578.7143556770 Eh

Convergence Acceleration:
 AO-DIIS                CNVDIIS         .... on
   Start iteration      DIISMaxIt       ....    12
   Startup error        DIISStart       ....  0.200000
   # of expansion vecs  DIISMaxEq       ....     5
   Bias factor          DIISBfac        ....   1.050
   Max. coefficient     DIISMaxC        ....  10.000
 MO-DIIS                CNVKDIIS        .... off
 Trust-Rad. Augm. Hess. CNVTRAH         .... auto
   Auto Start mean grad. ratio tolernc. ....  1.125000
   Auto Start start iteration           ....    50
   Auto Start num. interpolation iter.  ....    10
   Max. Number of Micro iterations      ....    24
   Max. Number of Macro iterations      .... Maxiter - #DIIS iter
   Number of Davidson start vectors     ....     2
   Converg. threshold    (grad. norm)   ....   1.000e-05
   Grad. Scal. Fac. for Micro threshold ....   0.100
   Minimum threshold for Micro iter.    ....   1.000e-02
   NR start threshold (gradient norm)   ....   1.000e-04
   Initial trust radius                 ....   0.400
   Minimum AH scaling param. (alpha)    ....   1.000
   Maximum AH scaling param. (alpha)    .... 1000.000
   Quad. conv. algorithm                .... NR
   White noise on init. David. guess    .... on
   Maximum white noise                  ....   0.010
   Pseudo random numbers                .... off
   Inactive MOs                         .... canonical
   Orbital update algorithm             .... Taylor
   Preconditioner                       .... Diag
   Full preconditioner red. dimension   ....   250
 SOSCF                 CNVSOSCF           .... on
   Start iteration     SOSCFMaxIt         ....   150
   Startup grad/error  SOSCFStart         ....  0.000330
   Hessian update      SOSCFHessUp        .... L-BFGS
   Autom. constraints  SOSCFAutoConstrain .... off
 Level Shifting         CNVShift        .... on
   Level shift para.    LevelShift      ....    0.2500
   Turn off err/grad.   ShiftErr        ....    0.0010
 Zerner damping         CNVZerner       .... off
 Static damping         CNVDamp         .... on
   Fraction old density DampFac         ....    0.7000
   Max. Damping (<1)    DampMax         ....    0.9800
   Min. Damping (>=0)   DampMin         ....    0.0000
   Turn off err/grad.   DampErr         ....    0.1000

SCF Procedure:
 Maximum # iterations   MaxIter         ....  1000
 SCF integral mode      SCFMode         .... Direct
   Integral package                     .... SHARK and LIBINT hybrid scheme
 Reset frequency        DirectResetFreq ....    20
 Integral Threshold     Thresh          ....  2.500e-11 Eh
 Primitive CutOff       TCut            ....  2.500e-12 Eh

Convergence Tolerance:
 Convergence Check Mode ConvCheckMode   .... Total+1el-Energy
 Convergence forced     ConvForced      .... 0
 Energy Change          TolE            ....  1.000e-08 Eh
 1-El. energy change                    ....  1.000e-05 Eh
 Orbital Gradient       TolG            ....  1.000e-05
 Orbital Rotation angle TolX            ....  1.000e-05
 DIIS Error             TolErr          ....  5.000e-07

------------------------------
INITIAL GUESS: MODEL POTENTIAL
------------------------------
Loading Hartree-Fock densities                     ... done
Calculating cut-offs                               ... done
Initializing the effective Hamiltonian             ... done
Setting up the integral package (SHARK)            ... done
Starting the Coulomb interaction                   ... done (   0.2 sec)
Making the grid                                    ... done (   0.3 sec)
Mapping shells                                     ... done
Starting the XC term evaluation                    ... done (   0.2 sec)
  promolecular density results
     # of electrons  =     79.993338893
     EX              =    -63.410503613
     EC              =     -2.669825648
     EX+EC           =    -66.080329261
Transforming the Hamiltonian                       ... done (   0.0 sec)
Diagonalizing the Hamiltonian                      ... done (   0.0 sec)
Back transforming the eigenvectors                 ... done (   0.0 sec)
Now organizing SCF variables                       ... done
                      ------------------
                      INITIAL GUESS DONE (   0.7 sec)
                      ------------------
             **** ENERGY FILE WAS UPDATED (/kaggle/working/Bta-1/Bta_InterFrag.en.tmp) ****
Finished Guess after   1.1 sec
Maximum memory used throughout the entire GUESS-calculation: 14.1 MB


           ************************************************************
           *        Program running with 2 parallel MPI-processes     *
           *              working on a common directory               *
           ************************************************************

-------------------------------------------------------------------------------------------
                                      ORCA LEAN-SCF
                              memory conserving SCF solver
-------------------------------------------------------------------------------------------

--------------------
CPCM SOLVATION MODEL
--------------------
CPCM parameters:
  Epsilon                                         ...      78.3550
  Refrac                                          ...       1.3328
  Rsolv                                           ...       1.3000
  Surface type                                    ... GAUSSIAN VDW
  Discretization scheme                           ... Constant charge density
    Threshold for H atoms                         ...       5.0000 (charges/Ang^2)
    Threshold for non-H atoms                     ...       5.0000 (charges/Ang^2)
  Epsilon function type                           ...         CPCM
Solvent:                                          ... WATER
SMD-CDS solvent descriptors:
  Soln                                            ...       1.3328
  Soln25                                          ...       1.3323
  Sola                                            ...       0.0000
  Solb                                            ...       0.0000
  Solg                                            ...       0.0000
  Solc                                            ...       0.0000
  Solh                                            ...       0.0000
Radii:
  Scheme                                          ... Element-dependent radii
  Radius for O  used is    2.8724 Bohr (=   1.5200 Ang.)
  Radius for N  used is    3.5716 Bohr (=   1.8900 Ang.)
  Radius for C  used is    3.4960 Bohr (=   1.8500 Ang.)
  Radius for H  used is    2.2677 Bohr (=   1.2000 Ang.)
Calculating surface                               ...        done! (  0.0s)
Cavity surface points                             ...         1757
Cavity Volume                                     ...    1092.7097
Cavity Surface-area                               ...     682.9188
Calculating surface distance matrix               ...        done! (  0.0s)
Performing Cholesky decomposition & store         ...        done! (  0.1s)
Overall time for CPCM initialization              ...                 0.2s

----------------------------------------D-I-I-S--------------------------------------------
Iteration    Energy (Eh)           Delta-E    RMSDP     MaxDP     DIISErr   Damp  Time(sec)
-------------------------------------------------------------------------------------------
               ***  Starting incremental Fock matrix formation  ***
    1    -480.3296301118331257     0.00e+00  4.20e-03  8.73e-02  2.57e-01  0.700   6.1
    2    -480.5210537179701760    -1.91e-01  2.88e-03  5.36e-02  1.13e-01  0.700   3.0
                               ***Turning on AO-DIIS***
    3    -480.5937257458989507    -7.27e-02  1.11e-03  1.64e-02  3.51e-02  0.700   3.0
    4    -480.6368517668348659    -4.31e-02  1.64e-03  2.35e-02  1.61e-02  0.000   2.8
    5    -480.7319673322793960    -9.51e-02  4.00e-04  6.25e-03  7.86e-03  0.000   2.9
    6    -480.7326031459955402    -6.36e-04  1.35e-04  2.07e-03  2.55e-03  0.000   2.7
    7    -480.7326496772142264    -4.65e-05  4.66e-05  6.93e-04  5.87e-04  0.000   2.5
               *** Restarting incremental Fock matrix formation ***
                             ****Resetting DIIS****
                              *** Initializing SOSCF ***
---------------------------------------S-O-S-C-F--------------------------------------
Iteration    Energy (Eh)           Delta-E    RMSDP     MaxDP     MaxGrad    Time(sec)
--------------------------------------------------------------------------------------
    8    -480.7326802461851685    -3.06e-05  3.04e-05  4.07e-04  2.13e-04     5.4
               *** Restarting incremental Fock matrix formation ***
    9    -480.7326804899047374    -2.44e-07  1.95e-05  6.15e-04  1.77e-04     5.3
   10    -480.7326798205791647     6.69e-07  1.23e-05  4.15e-04  3.51e-04     3.3
   11    -480.7326807927457821    -9.72e-07  3.35e-06  6.34e-05  1.60e-05     3.0
   12    -480.7326807881016748     4.64e-09  1.89e-06  3.60e-05  2.02e-05     2.8
                 **** Energy Check signals convergence ****

               *****************************************************
               *                     SUCCESS                       *
               *           SCF CONVERGED AFTER  12 CYCLES          *
               *****************************************************

Recomputing exchange energy using gridx3       ... done (    8.014 sec)
Old exchange energy                            :    -12.952596145 Eh
New exchange energy                            :    -12.952591530 Eh
Exchange energy change after final integration :      0.000004615 Eh
Total energy after final integration           :   -480.732676187 Eh

SMD CDS free energy correction energy :                 4.81764     Kcal/mol
Total Energy after SMD CDS correction =              -480.724998790 Eh
             **** ENERGY FILE WAS UPDATED (/kaggle/working/Bta-1/Bta_InterFrag.en.tmp) ****

----------------
TOTAL SCF ENERGY
----------------

Total Energy       :       -480.72499878956489 Eh          -13081.19225 eV

Components:
Nuclear Repulsion  :        578.71435567700735 Eh           15747.61821 eV
Electronic Energy  :      -1059.42401414170899 Eh          -28828.39303 eV
One Electron Energy:      -1801.41507181341444 Eh          -49018.99618 eV
Two Electron Energy:        741.99105767170556 Eh           20190.60315 eV
CPCM Dielectric    :         -0.02302233703276 Eh              -0.62647 eV
SMD CDS (Gcds)     :          0.00767739745678 Eh               0.20891 eV

Virial components:
Potential Energy   :       -958.24377273839025 Eh          -26075.13869 eV
Kinetic Energy     :        477.51877394882536 Eh           12993.94644 eV
Virial Ratio       :          2.00671434300735

DFT components:
N(Alpha)           :       40.000007976946 electrons
N(Beta)            :       40.000007976946 electrons
N(Total)           :       80.000015953892 electrons
E(X)               :      -51.396960039126 Eh       
E(C)               :       -3.151860191299 Eh       
E(XC)              :      -54.548820230425 Eh       

CPCM Solvation Model Properties:
Surface-charge          :         -0.04120920045564
Corrected charge        :         -0.00000000000000
Outlying charge corr.   :          0.00012160902072 Eh               0.00331 eV
Free-energy (cav+disp)  :          0.00767739745678 Eh               0.20891 eV

---------------
SCF CONVERGENCE
---------------

  Last Energy change         ...   -4.6441e-09  Tolerance :   1.0000e-08
  Last MAX-Density change    ...    3.6049e-05  Tolerance :   1.0000e-07
  Last RMS-Density change    ...    1.8871e-06  Tolerance :   5.0000e-09
  Last DIIS Error            ...    2.1295e-04  Tolerance :   5.0000e-07
  Last Orbital Gradient      ...    2.0161e-05  Tolerance :   1.0000e-05
  Last Orbital Rotation      ...    1.9481e-05  Tolerance :   1.0000e-05


----------------
ORBITAL ENERGIES
----------------

  NO   OCC          E(Eh)            E(eV) 
   0   2.0000     -19.187348      -522.1143 
   1   2.0000     -19.138786      -520.7928 
   2   2.0000     -14.291477      -388.8909 
   3   2.0000     -10.321552      -280.8637 
   4   2.0000     -10.201267      -277.5906 
   5   2.0000     -10.183515      -277.1075 
   6   2.0000     -10.181866      -277.0627 
   7   2.0000     -10.155021      -276.3322 
   8   2.0000     -10.154339      -276.3136 
   9   2.0000     -10.152084      -276.2522 
  10   2.0000      -1.094650       -29.7869 
  11   2.0000      -1.010831       -27.5061 
  12   2.0000      -0.874127       -23.7862 
  13   2.0000      -0.789449       -21.4820 
  14   2.0000      -0.750695       -20.4275 
  15   2.0000      -0.667957       -18.1760 
  16   2.0000      -0.667817       -18.1722 
  17   2.0000      -0.643176       -17.5017 
  18   2.0000      -0.583339       -15.8735 
  19   2.0000      -0.515168       -14.0184 
  20   2.0000      -0.493232       -13.4215 
  21   2.0000      -0.484386       -13.1808 
  22   2.0000      -0.475096       -12.9280 
  23   2.0000      -0.456955       -12.4344 
  24   2.0000      -0.437532       -11.9059 
  25   2.0000      -0.420694       -11.4477 
  26   2.0000      -0.414020       -11.2660 
  27   2.0000      -0.407873       -11.0988 
  28   2.0000      -0.384992       -10.4762 
  29   2.0000      -0.370249       -10.0750 
  30   2.0000      -0.363190        -9.8829 
  31   2.0000      -0.361283        -9.8310 
  32   2.0000      -0.351463        -9.5638 
  33   2.0000      -0.344687        -9.3794 
  34   2.0000      -0.319104        -8.6833 
  35   2.0000      -0.310389        -8.4461 
  36   2.0000      -0.308805        -8.4030 
  37   2.0000      -0.302896        -8.2422 
  38   2.0000      -0.277849        -7.5606 
  39   2.0000      -0.223061        -6.0698 
  40   0.0000       0.007030         0.1913 
  41   0.0000       0.087034         2.3683 
  42   0.0000       0.104254         2.8369 
  43   0.0000       0.125291         3.4093 
  44   0.0000       0.138580         3.7710 
  45   0.0000       0.144498         3.9320 
  46   0.0000       0.149741         4.0747 
  47   0.0000       0.152621         4.1530 
  48   0.0000       0.168800         4.5933 
  49   0.0000       0.182484         4.9656 
  50   0.0000       0.188635         5.1330 
  51   0.0000       0.192577         5.2403 
  52   0.0000       0.208152         5.6641 
  53   0.0000       0.219158         5.9636 
  54   0.0000       0.220842         6.0094 
  55   0.0000       0.229747         6.2517 
  56   0.0000       0.241904         6.5826 
  57   0.0000       0.244132         6.6432 
  58   0.0000       0.255496         6.9524 
  59   0.0000       0.270424         7.3586 
  60   0.0000       0.276557         7.5255 
  61   0.0000       0.287439         7.8216 
  62   0.0000       0.296077         8.0567 
  63   0.0000       0.338400         9.2083 
  64   0.0000       0.383468        10.4347 
  65   0.0000       0.516279        14.0487 
  66   0.0000       0.516726        14.0608 
  67   0.0000       0.529138        14.3986 
  68   0.0000       0.538544        14.6545 
  69   0.0000       0.547839        14.9075 
  70   0.0000       0.562238        15.2993 
  71   0.0000       0.585020        15.9192 
  72   0.0000       0.598538        16.2871 
  73   0.0000       0.628803        17.1106 
  74   0.0000       0.637373        17.3438 
  75   0.0000       0.654593        17.8124 
  76   0.0000       0.680482        18.5169 
  77   0.0000       0.688099        18.7241 
  78   0.0000       0.700434        19.0598 
  79   0.0000       0.710041        19.3212 
  80   0.0000       0.731248        19.8983 
  81   0.0000       0.744315        20.2539 
  82   0.0000       0.757840        20.6219 
  83   0.0000       0.774962        21.0878 
  84   0.0000       0.800141        21.7729 
  85   0.0000       0.833889        22.6913 
  86   0.0000       0.847784        23.0694 
  87   0.0000       0.857847        23.3432 
  88   0.0000       0.862185        23.4612 
  89   0.0000       0.878533        23.9061 
  90   0.0000       0.879513        23.9328 
  91   0.0000       0.889756        24.2115 
  92   0.0000       0.896732        24.4013 
  93   0.0000       0.900979        24.5169 
  94   0.0000       0.910718        24.7819 
  95   0.0000       0.925056        25.1721 
  96   0.0000       0.933226        25.3944 
  97   0.0000       0.942298        25.6412 
  98   0.0000       0.945362        25.7246 
  99   0.0000       0.959037        26.0967 
 100   0.0000       0.961377        26.1604 
 101   0.0000       0.971610        26.4389 
 102   0.0000       0.981399        26.7052 
 103   0.0000       0.999303        27.1924 
 104   0.0000       1.004452        27.3325 
 105   0.0000       1.020377        27.7659 
 106   0.0000       1.044121        28.4120 
 107   0.0000       1.070851        29.1393 
 108   0.0000       1.105489        30.0819 
 109   0.0000       1.122441        30.5432 
 110   0.0000       1.150579        31.3089 
 111   0.0000       1.206081        32.8191 
 112   0.0000       1.278521        34.7903 
 113   0.0000       1.308470        35.6053 
 114   0.0000       1.332629        36.2627 
 115   0.0000       1.384586        37.6765 
 116   0.0000       1.407789        38.3079 
 117   0.0000       1.450794        39.4781 
 118   0.0000       1.478462        40.2310 
 119   0.0000       1.484495        40.3952 
 120   0.0000       1.510048        41.0905 
 121   0.0000       1.536821        41.8190 
 122   0.0000       1.587630        43.2016 
 123   0.0000       1.600208        43.5439 
 124   0.0000       1.631834        44.4045 
 125   0.0000       1.654949        45.0334 
 126   0.0000       1.673878        45.5485 
 127   0.0000       1.694644        46.1136 
 128   0.0000       1.731855        47.1262 
 129   0.0000       1.745578        47.4996 
 130   0.0000       1.759419        47.8762 
 131   0.0000       1.798527        48.9404 
 132   0.0000       1.822929        49.6044 
 133   0.0000       1.831349        49.8335 
 134   0.0000       1.837782        50.0086 
 135   0.0000       1.856980        50.5310 
 136   0.0000       1.867305        50.8120 
 137   0.0000       1.883759        51.2597 
 138   0.0000       1.888760        51.3958 
 139   0.0000       1.916114        52.1401 
 140   0.0000       1.944712        52.9183 
 141   0.0000       1.958866        53.3035 
 142   0.0000       1.964557        53.4583 
 143   0.0000       1.997384        54.3516 
 144   0.0000       2.009738        54.6878 
 145   0.0000       2.035163        55.3796 
 146   0.0000       2.063213        56.1429 
 147   0.0000       2.067470        56.2587 
 148   0.0000       2.071828        56.3773 
 149   0.0000       2.079606        56.5890 
 150   0.0000       2.115777        57.5732 
 151   0.0000       2.137355        58.1604 
 152   0.0000       2.144625        58.3582 
 153   0.0000       2.150880        58.5284 
 154   0.0000       2.156819        58.6900 
 155   0.0000       2.163827        58.8807 
 156   0.0000       2.173469        59.1431 
 157   0.0000       2.191517        59.6342 
 158   0.0000       2.221417        60.4478 
 159   0.0000       2.239377        60.9365 
 160   0.0000       2.274313        61.8872 
 161   0.0000       2.297099        62.5072 
 162   0.0000       2.317522        63.0630 
 163   0.0000       2.339413        63.6587 
 164   0.0000       2.364391        64.3384 
 165   0.0000       2.367998        64.4365 
 166   0.0000       2.388611        64.9974 
 167   0.0000       2.417774        65.7910 
 168   0.0000       2.422723        65.9256 
 169   0.0000       2.495726        67.9122 
 170   0.0000       2.515619        68.4535 
 171   0.0000       2.522480        68.6402 
 172   0.0000       2.529774        68.8387 
 173   0.0000       2.540657        69.1348 
 174   0.0000       2.583987        70.3139 
 175   0.0000       2.613011        71.1036 
 176   0.0000       2.622328        71.3572 
 177   0.0000       2.663356        72.4736 
 178   0.0000       2.675480        72.8035 
 179   0.0000       2.694283        73.3152 
 180   0.0000       2.706346        73.6434 
 181   0.0000       2.734401        74.4068 
 182   0.0000       2.743999        74.6680 
 183   0.0000       2.761466        75.1433 
 184   0.0000       2.774530        75.4988 
 185   0.0000       2.792733        75.9941 
 186   0.0000       2.818336        76.6908 
 187   0.0000       2.846030        77.4444 
 188   0.0000       2.862656        77.8968 
 189   0.0000       2.884863        78.5011 
 190   0.0000       2.889736        78.6337 
 191   0.0000       2.899376        78.8960 
 192   0.0000       2.913994        79.2938 
 193   0.0000       2.925271        79.6007 
 194   0.0000       2.964402        80.6655 
 195   0.0000       2.966775        80.7300 
 196   0.0000       3.001731        81.6812 
 197   0.0000       3.034508        82.5732 
 198   0.0000       3.075219        83.6810 
 199   0.0000       3.177742        86.4708 
 200   0.0000       3.198372        87.0321 
 201   0.0000       3.253302        88.5268 
 202   0.0000       3.259316        88.6905 
 203   0.0000       3.315265        90.2130 
 204   0.0000       3.376314        91.8742 
 205   0.0000       3.412376        92.8555 
 206   0.0000       3.444155        93.7202 
 207   0.0000       3.448954        93.8508 
 208   0.0000       3.451992        93.9335 
 209   0.0000       3.457648        94.0874 
 210   0.0000       3.470079        94.4256 
 211   0.0000       3.506720        95.4227 
 212   0.0000       3.538065        96.2757 
 213   0.0000       3.542352        96.3923 
 214   0.0000       3.564309        96.9898 

                    ********************************
                    * MULLIKEN POPULATION ANALYSIS *
                    ********************************

-----------------------
MULLIKEN ATOMIC CHARGES
-----------------------
   0 O :   -0.502816
   1 O :   -0.509121
   2 N :   -0.655742
   3 C :    0.061454
   4 C :    0.075055
   5 C :   -0.320598
   6 C :   -0.315819
   7 C :   -0.327897
   8 C :   -0.255113
   9 C :    0.553934
  10 H :    0.080940
  11 H :    0.105002
  12 H :    0.104966
  13 H :    0.100123
  14 H :    0.097340
  15 H :    0.102357
  16 H :    0.100284
  17 H :    0.101838
  18 H :    0.105659
  19 H :    0.105870
  20 H :    0.139277
  21 H :    0.166207
  22 H :    0.259568
  23 H :    0.253907
  24 H :    0.373325
Sum of atomic charges:   -0.0000000

--------------------------------
MULLIKEN REDUCED ORBITAL CHARGES
--------------------------------
  0 O s       :     3.824757  s :     3.824757
      pz      :     1.705059  p :     4.657132
      px      :     1.275431
      py      :     1.676643
      dz2     :     0.004198  d :     0.020926
      dxz     :     0.002861
      dyz     :     0.004070
      dx2y2   :     0.003452
      dxy     :     0.006344

  1 O s       :     3.850589  s :     3.850589
      pz      :     1.457084  p :     4.633051
      px      :     1.775772
      py      :     1.400196
      dz2     :     0.005855  d :     0.025480
      dxz     :     0.002604
      dyz     :     0.006852
      dx2y2   :     0.005653
      dxy     :     0.004518

  2 N s       :     3.610967  s :     3.610967
      pz      :     1.648517  p :     4.016516
      px      :     1.184450
      py      :     1.183549
      dz2     :     0.005524  d :     0.028259
      dxz     :     0.003357
      dyz     :     0.006424
      dx2y2   :     0.003840
      dxy     :     0.009114

  3 C s       :     3.200253  s :     3.200253
      pz      :     0.899616  p :     2.691357
      px      :     0.899915
      py      :     0.891827
      dz2     :     0.010825  d :     0.046936
      dxz     :     0.006148
      dyz     :     0.011065
      dx2y2   :     0.008594
      dxy     :     0.010304

  4 C s       :     3.178054  s :     3.178054
      pz      :     0.909261  p :     2.690587
      px      :     0.923603
      py      :     0.857723
      dz2     :     0.016142  d :     0.056304
      dxz     :     0.005021
      dyz     :     0.013850
      dx2y2   :     0.009384
      dxy     :     0.011906

  5 C s       :     3.245184  s :     3.245184
      pz      :     1.002246  p :     3.043479
      px      :     1.037838
      py      :     1.003394
      dz2     :     0.010148  d :     0.031935
      dxz     :     0.001836
      dyz     :     0.006291
      dx2y2   :     0.006020
      dxy     :     0.007639

  6 C s       :     3.240896  s :     3.240896
      pz      :     0.982565  p :     3.043164
      px      :     1.032652
      py      :     1.027947
      dz2     :     0.008107  d :     0.031759
      dxz     :     0.002706
      dyz     :     0.008864
      dx2y2   :     0.005375
      dxy     :     0.006707

  7 C s       :     3.249817  s :     3.249817
      pz      :     1.039594  p :     3.046274
      px      :     1.007945
      py      :     0.998735
      dz2     :     0.006344  d :     0.031806
      dxz     :     0.001357
      dyz     :     0.010913
      dx2y2   :     0.007035
      dxy     :     0.006156

  8 C s       :     3.239231  s :     3.239231
      pz      :     1.075297  p :     2.981644
      px      :     0.892289
      py      :     1.014058
      dz2     :     0.007393  d :     0.034238
      dxz     :     0.002455
      dyz     :     0.009508
      dx2y2   :     0.007615
      dxy     :     0.007267

  9 C s       :     2.999966  s :     2.999966
      pz      :     0.730233  p :     2.324719
      px      :     0.858162
      py      :     0.736323
      dz2     :     0.019987  d :     0.121382
      dxz     :     0.021814
      dyz     :     0.020224
      dx2y2   :     0.024110
      dxy     :     0.035248

 10 H s       :     0.908076  s :     0.908076
      pz      :     0.006024  p :     0.010984
      px      :     0.002188
      py      :     0.002772

 11 H s       :     0.883459  s :     0.883459
      pz      :     0.002341  p :     0.011539
      px      :     0.003825
      py      :     0.005373

 12 H s       :     0.883575  s :     0.883575
      pz      :     0.002253  p :     0.011458
      px      :     0.006560
      py      :     0.002645

 13 H s       :     0.888386  s :     0.888386
      pz      :     0.006142  p :     0.011491
      px      :     0.002563
      py      :     0.002787

 14 H s       :     0.891106  s :     0.891106
      pz      :     0.004604  p :     0.011555
      px      :     0.002646
      py      :     0.004304

 15 H s       :     0.886091  s :     0.886091
      pz      :     0.002333  p :     0.011552
      px      :     0.003895
      py      :     0.005324

 16 H s       :     0.888246  s :     0.888246
      pz      :     0.002219  p :     0.011470
      px      :     0.006476
      py      :     0.002776

 17 H s       :     0.886691  s :     0.886691
      pz      :     0.005695  p :     0.011471
      px      :     0.002434
      py      :     0.003341

 18 H s       :     0.882876  s :     0.882876
      pz      :     0.002449  p :     0.011465
      px      :     0.006329
      py      :     0.002687

 19 H s       :     0.882548  s :     0.882548
      pz      :     0.004828  p :     0.011581
      px      :     0.002430
      py      :     0.004324

 20 H s       :     0.849056  s :     0.849056
      pz      :     0.006384  p :     0.011666
      px      :     0.002218
      py      :     0.003064

 21 H s       :     0.821613  s :     0.821613
      pz      :     0.004674  p :     0.012180
      px      :     0.002450
      py      :     0.005056

 22 H s       :     0.716815  s :     0.716815
      pz      :     0.006683  p :     0.023616
      px      :     0.008025
      py      :     0.008909

 23 H s       :     0.722254  s :     0.722254
      pz      :     0.006796  p :     0.023840
      px      :     0.011577
      py      :     0.005466

 24 H s       :     0.589636  s :     0.589636
      pz      :     0.007442  p :     0.037039
      px      :     0.020757
      py      :     0.008840


------------------------
MULLIKEN OVERLAP CHARGES
------------------------
B(  0-O ,  1-O ) :  -0.1534 B(  0-O ,  8-C ) :  -0.1625 B(  0-O ,  9-C ) :   0.6208 
B(  0-O , 24-H ) :   0.5602 B(  1-O ,  8-C ) :  -0.1824 B(  1-O ,  9-C ) :   1.1701 
B(  2-N ,  3-C ) :  -0.0959 B(  2-N ,  4-C ) :   0.6159 B(  2-N ,  8-C ) :  -0.1180 
B(  2-N , 10-H ) :  -0.1208 B(  2-N , 22-H ) :   0.6806 B(  2-N , 23-H ) :   0.6662 
B(  3-C ,  4-C ) :   0.7416 B(  3-C ,  5-C ) :   0.7564 B(  3-C ,  6-C ) :   0.7535 
B(  3-C ,  7-C ) :   0.7695 B(  3-C , 10-H ) :  -0.0911 B(  3-C , 11-H ) :  -0.0569 
B(  3-C , 12-H ) :  -0.0507 B(  3-C , 13-H ) :  -0.0621 B(  3-C , 14-H ) :  -0.0594 
B(  3-C , 15-H ) :  -0.0572 B(  3-C , 16-H ) :  -0.0579 B(  3-C , 17-H ) :  -0.0599 
B(  3-C , 18-H ) :  -0.0517 B(  3-C , 19-H ) :  -0.0541 B(  4-C ,  5-C ) :  -0.0853 
B(  4-C ,  6-C ) :  -0.0857 B(  4-C ,  7-C ) :  -0.0856 B(  4-C ,  8-C ) :   0.6713 
B(  4-C ,  9-C ) :  -0.0507 B(  4-C , 10-H ) :   0.7625 B(  4-C , 20-H ) :  -0.0657 
B(  4-C , 22-H ) :  -0.0632 B(  4-C , 23-H ) :  -0.0560 B(  5-C ,  6-C ) :  -0.1129 
B(  5-C ,  7-C ) :  -0.1122 B(  5-C , 11-H ) :   0.7532 B(  5-C , 12-H ) :   0.7569 
B(  5-C , 13-H ) :   0.7497 B(  6-C ,  7-C ) :  -0.1194 B(  6-C , 14-H ) :   0.7444 
B(  6-C , 15-H ) :   0.7538 B(  6-C , 16-H ) :   0.7569 B(  7-C , 17-H ) :   0.7458 
B(  7-C , 18-H ) :   0.7582 B(  7-C , 19-H ) :   0.7477 B(  8-C ,  9-C ) :   0.6738 
B(  8-C , 10-H ) :  -0.1043 B(  8-C , 20-H ) :   0.6964 B(  8-C , 21-H ) :   0.7255 
B(  9-C , 20-H ) :  -0.0527 B( 11-H , 12-H ) :  -0.0612 B( 11-H , 13-H ) :  -0.0623 
B( 12-H , 13-H ) :  -0.0617 B( 14-H , 15-H ) :  -0.0619 B( 14-H , 16-H ) :  -0.0630 
B( 15-H , 16-H ) :  -0.0618 B( 17-H , 18-H ) :  -0.0609 B( 17-H , 19-H ) :  -0.0627 
B( 18-H , 19-H ) :  -0.0618 B( 22-H , 23-H ) :  -0.0585 


                     *******************************
                     * LOEWDIN POPULATION ANALYSIS *
                     *******************************

----------------------
LOEWDIN ATOMIC CHARGES
----------------------
   0 O :   -0.165156
   1 O :   -0.302270
   2 N :   -0.304973
   3 C :   -0.016689
   4 C :    0.001004
   5 C :   -0.195593
   6 C :   -0.197679
   7 C :   -0.196445
   8 C :   -0.148548
   9 C :    0.172003
  10 H :    0.051813
  11 H :    0.068455
  12 H :    0.072261
  13 H :    0.067748
  14 H :    0.065503
  15 H :    0.067362
  16 H :    0.069946
  17 H :    0.068581
  18 H :    0.072594
  19 H :    0.068758
  20 H :    0.093512
  21 H :    0.110173
  22 H :    0.131964
  23 H :    0.127432
  24 H :    0.218244

-------------------------------
LOEWDIN REDUCED ORBITAL CHARGES
-------------------------------
  0 O s       :     3.474936  s :     3.474936
      pz      :     1.687645  p :     4.645160
      px      :     1.287634
      py      :     1.669881
      dz2     :     0.006992  d :     0.045060
      dxz     :     0.007994
      dyz     :     0.006927
      dx2y2   :     0.009338
      dxy     :     0.013809

  1 O s       :     3.560183  s :     3.560183
      pz      :     1.469788  p :     4.690107
      px      :     1.759086
      py      :     1.461233
      dz2     :     0.008088  d :     0.051980
      dxz     :     0.005174
      dyz     :     0.017129
      dx2y2   :     0.011382
      dxy     :     0.010207

  2 N s       :     3.198711  s :     3.198711
      pz      :     1.657028  p :     4.051529
      px      :     1.187033
      py      :     1.207467
      dz2     :     0.009966  d :     0.054733
      dxz     :     0.004643
      dyz     :     0.012307
      dx2y2   :     0.009440
      dxy     :     0.018377

  3 C s       :     2.875197  s :     2.875197
      pz      :     1.018585  p :     3.032928
      px      :     0.999375
      py      :     1.014968
      dz2     :     0.025368  d :     0.108564
      dxz     :     0.012572
      dyz     :     0.026448
      dx2y2   :     0.019297
      dxy     :     0.024878

  4 C s       :     2.881907  s :     2.881907
      pz      :     1.013532  p :     2.992541
      px      :     1.008441
      py      :     0.970568
      dz2     :     0.036347  d :     0.124547
      dxz     :     0.009468
      dyz     :     0.029862
      dx2y2   :     0.020776
      dxy     :     0.028094

  5 C s       :     2.919589  s :     2.919589
      pz      :     1.061357  p :     3.212134
      px      :     1.088744
      py      :     1.062034
      dz2     :     0.019455  d :     0.063870
      dxz     :     0.003717
      dyz     :     0.014241
      dx2y2   :     0.011801
      dxy     :     0.014656

  6 C s       :     2.918646  s :     2.918646
      pz      :     1.046445  p :     3.215324
      px      :     1.087174
      py      :     1.081705
      dz2     :     0.017178  d :     0.063709
      dxz     :     0.005625
      dyz     :     0.018154
      dx2y2   :     0.010114
      dxy     :     0.012637

  7 C s       :     2.922070  s :     2.922070
      pz      :     1.087979  p :     3.211119
      px      :     1.065584
      py      :     1.057556
      dz2     :     0.012604  d :     0.063256
      dxz     :     0.002531
[...]
12 H  py              0.1       0.0       0.0       1.2       0.0
13 H  s               0.0       0.2       1.5       0.4       0.5
13 H  pz              0.1       0.6       4.5       1.1       1.7
13 H  px              0.0       0.2       0.3       0.0       0.0
13 H  py              0.0       0.0       1.1       0.3       0.3
14 H  s               0.1       0.1       1.5       0.5       0.3
14 H  pz              0.1       0.1       3.4       1.0       0.4
14 H  px              0.0       0.0       0.1       0.1       0.0
14 H  py              0.1       0.2       2.4       0.6       0.7
15 H  s               0.0       0.2       0.3       2.1       0.0
15 H  px              0.0       0.1       0.5       2.8       0.0
15 H  py              0.0       0.8       0.5       5.6       0.0
16 H  s               0.1       1.0       0.3       0.5       0.7
16 H  px              0.6       3.8       1.1       1.9       2.5
16 H  py              0.1       0.5       0.0       0.2       0.2
17 H  s               0.0       0.2       0.2       2.1       0.0
17 H  pz              0.1       0.5       0.8       5.9       0.1
17 H  px              0.0       0.0       0.0       0.5       0.0
17 H  py              0.0       0.3       0.1       1.8       0.1
18 H  s               0.1       0.0       2.1       0.3       0.5
18 H  px              0.3       0.0       7.1       1.0       1.7
18 H  py              0.1       0.0       1.0       0.2       0.2
19 H  s               0.0       0.3       0.6       0.9       0.8
19 H  pz              0.0       0.8       1.4       1.9       1.8
19 H  py              0.0       0.6       0.5       1.8       1.4
20 H  s               0.2       2.2       0.3       0.1       2.3
20 H  pz              1.3       6.9       1.1       0.3       8.3
20 H  py              0.0       1.1       0.1       0.0       0.8
21 H  s               1.1       2.3       0.4       0.0       1.0
21 H  pz              1.6       2.0       0.2       0.1       0.8
21 H  px              0.0       0.1       0.0       0.0       0.1
21 H  py              3.7       6.6       1.2       0.1       2.9
22 H  s               0.0       1.4       2.1       1.2       2.1
22 H  pz              0.0       0.2       0.7       0.2       0.4
22 H  px              0.0       1.4       2.0       0.6       1.0
22 H  py              0.0       1.9       2.4       2.1       4.0
23 H  s               0.0       2.6       3.1       0.9       2.3
23 H  pz              0.0       0.0       0.1       0.0       0.1
23 H  px              0.1       5.5       6.7       1.7       5.2
23 H  py              0.1       2.0       1.5       0.6       0.4
24 H  s              13.3       0.0       0.0       0.2       0.1
24 H  pz              2.1       0.0       0.0       0.0       0.0
24 H  px             25.6       0.1       0.0       0.3       0.1
24 H  py              3.9       0.0       0.0       0.1       0.0


                      *****************************
                      * MAYER POPULATION ANALYSIS *
                      *****************************

  NA   - Mulliken gross atomic population
  ZA   - Total nuclear charge
  QA   - Mulliken gross atomic charge
  VA   - Mayer's total valence
  BVA  - Mayer's bonded valence
  FA   - Mayer's free valence

  ATOM       NA         ZA         QA         VA         BVA        FA
  0 O      8.4983     8.0000    -0.4983     2.0193     2.0193    -0.0000
  1 O      8.5107     8.0000    -0.5107     2.0171     2.0171    -0.0000
  2 N      7.6455     7.0000    -0.6455     2.8137     2.8137     0.0000
  3 C      5.9366     6.0000     0.0634     3.9339     3.9339     0.0000
  4 C      5.9275     6.0000     0.0725     3.8718     3.8718     0.0000
  5 C      6.3226     6.0000    -0.3226     3.8774     3.8774    -0.0000
  6 C      6.3174     6.0000    -0.3174     3.8718     3.8718    -0.0000
  7 C      6.3303     6.0000    -0.3303     3.8790     3.8790    -0.0000
  8 C      6.2649     6.0000    -0.2649     3.7943     3.7943    -0.0000
  9 C      5.4432     6.0000     0.5568     3.9547     3.9547     0.0000
 10 H      0.9204     1.0000     0.0796     0.9565     0.9565     0.0000
 11 H      0.8934     1.0000     0.1066     0.9581     0.9581    -0.0000
 12 H      0.8978     1.0000     0.1022     0.9591     0.9591    -0.0000
 13 H      0.8984     1.0000     0.1016     0.9594     0.9594    -0.0000
 14 H      0.9011     1.0000     0.0989     0.9690     0.9690     0.0000
 15 H      0.8967     1.0000     0.1033     0.9586     0.9586    -0.0000
 16 H      0.9015     1.0000     0.0985     0.9587     0.9587     0.0000
 17 H      0.8980     1.0000     0.1020     0.9579     0.9579    -0.0000
 18 H      0.8970     1.0000     0.1030     0.9594     0.9594     0.0000
 19 H      0.8936     1.0000     0.1064     0.9589     0.9589    -0.0000
 20 H      0.8449     1.0000     0.1551     0.9555     0.9555    -0.0000
 21 H      0.8392     1.0000     0.1608     0.9525     0.9525     0.0000
 22 H      0.7394     1.0000     0.2606     0.9138     0.9138     0.0000
 23 H      0.7483     1.0000     0.2517     0.9322     0.9322     0.0000
 24 H      0.6333     1.0000     0.3667     0.8801     0.8801    -0.0000

  Mayer bond orders larger than 0.100000
B(  0-O ,  9-C ) :   1.1144 B(  0-O , 24-H ) :   0.8268 B(  1-O ,  9-C ) :   1.8273 
B(  2-N ,  4-C ) :   0.9872 B(  2-N , 22-H ) :   0.8962 B(  2-N , 23-H ) :   0.8893 
B(  3-C ,  4-C ) :   0.9654 B(  3-C ,  5-C ) :   0.9951 B(  3-C ,  6-C ) :   0.9958 
B(  3-C ,  7-C ) :   0.9956 B(  4-C ,  8-C ) :   0.9675 B(  4-C , 10-H ) :   0.9323 
B(  5-C , 11-H ) :   0.9547 B(  5-C , 12-H ) :   0.9581 B(  5-C , 13-H ) :   0.9580 
B(  6-C , 14-H ) :   0.9550 B(  6-C , 15-H ) :   0.9580 B(  6-C , 16-H ) :   0.9595 
B(  7-C , 17-H ) :   0.9573 B(  7-C , 18-H ) :   0.9578 B(  7-C , 19-H ) :   0.9547 
B(  8-C ,  9-C ) :   0.9681 B(  8-C , 20-H ) :   0.9198 B(  8-C , 21-H ) :   0.9196 


-------
TIMINGS
-------

Total SCF time: 0 days 0 hours 0 min 30 sec 

Total time                  ....      30.782 sec
Sum of individual times     ....      28.854 sec  ( 93.7%)

SCF preparation             ....       0.522 sec  (  1.7%)
Fock matrix formation       ....      27.888 sec  ( 90.6%)
  Startup                   ....       0.004 sec  (  0.0% of F)
  Split-RI-J                ....       2.210 sec  (  7.9% of F)
  Chain of spheres X        ....      20.646 sec  ( 74.0% of F)
  XC integration            ....       4.105 sec  ( 14.7% of F)
    XC Preparation          ....       0.000 sec  (  0.0% of XC)
    Basis function eval.    ....       1.738 sec  ( 42.3% of XC)
    Density eval.           ....       0.912 sec  ( 22.2% of XC)
    XC-Functional eval.     ....       0.241 sec  (  5.9% of XC)
    XC-Potential eval.      ....       0.939 sec  ( 22.9% of XC)
  CPCM terms                ....       2.746 sec  (  9.8% of F)
Diagonalization             ....       0.000 sec  (  0.0%)
Density matrix formation    ....       0.018 sec  (  0.1%)
Total Energy calculation    ....       0.011 sec  (  0.0%)
Population analysis         ....       0.258 sec  (  0.8%)
Orbital Transformation      ....       0.025 sec  (  0.1%)
Orbital Orthonormalization  ....       0.000 sec  (  0.0%)
DIIS solution               ....       0.098 sec  (  0.3%)
  MO trafo                  ....       0.000 sec  (  0.0 % of DIIS)
  Orb grad                  ....       0.000 sec  (  0.0 % of DIIS)
  Energy W gradient         ....       0.000 sec  (  0.0 % of DIIS)
  DIIS error                ....       0.021 sec  ( 21.4 % of DIIS)
  DIIS work                 ....       0.061 sec  ( 61.8 % of DIIS)
  Form Q                    ....       0.000 sec  (  0.0 % of DIIS)
  Form QpQm                 ....       0.000 sec  (  0.0 % of DIIS)
  Exp/Cayley                ....       0.000 sec  (  0.0 % of DIIS)
  Orb update                ....       0.000 sec  (  0.0 % of DIIS)
  Wake-sleep                ....       0.004 sec  (  3.7 % of DIIS)
SOSCF solution              ....       0.034 sec  (  0.1%)
  MO trafo                  ....       0.018 sec  ( 51.3 % of SOSCF)
  Orb grad                  ....       0.001 sec  (  2.7 % of SOSCF)
  Rot update                ....       0.002 sec  (  4.9 % of SOSCF)
  Step                      ....       0.012 sec  ( 35.4 % of SOSCF)
Finished LeanSCF after  30.9 sec

Maximum memory used throughout the entire LEANSCF-calculation: 35.8 MB


-------------------------------------------------------------------------------
                          DFT DISPERSION CORRECTION                            
                                                                               
                              DFTD3 V3.1  Rev 1                                
                          USING Becke-Johnson damping                          
-------------------------------------------------------------------------------
The B3LYP functional is recognized
Active option DFTDOPT                   ...         4   

molecular C6(AA) [au] = 4564.689242 


            DFT-D V3
 parameters
 s6 scaling factor         :     1.0000 
 a1 scaling factor         :     0.3981 
 s8 scaling factor         :     1.9889 
 a2 scaling factor         :     4.4211 
 ad hoc parameters k1-k3   :    16.0000     1.3333    -4.0000 

 Edisp/kcal,au: -26.013628444733  -0.041455351266 
 E6   /kcal   : -12.840981358 
 E8   /kcal   : -13.172647087 
 % E8         :  50.637484558 

-------------------------   ----------------
Dispersion correction           -0.041455351
-------------------------   ----------------


-------------------------   --------------------
FINAL SINGLE POINT ENERGY      -480.770492429645
-------------------------   --------------------

                                *** OPTIMIZATION RUN DONE ***



           ************************************************************
           *        Program running with 2 parallel MPI-processes     *
           *              working on a common directory               *
           ************************************************************

------------------------------------------------------------------------------
                              ORCA PROPERTY CALCULATIONS
------------------------------------------------------------------------------

GBWName                                 ... /kaggle/working/Bta-1/Bta_InterFrag.gbw
Number of atoms                         ...     25
Number of basis functions               ...    215
Max core memory                         ...   3000 MB

Electric properties:
Dipole moment                           ... YES
Quadrupole moment                       ...  NO
Static polarizability (Dipole/Dipole)   ...  NO
Static polarizability (Dipole/Quad.)    ...  NO
Static polarizability (Quad./Quad.)     ...  NO
Static polarizability (Velocity)        ...  NO
Static hyperpolarizability              ...  NO

Atomic electric properties:
Dipole moment                           ...  NO
Quadrupole moment                       ...  NO
Static polarizability                   ...  NO

Choice of electric origin               ... Center of mass
Position of electric origin             ...     0.055301     0.011176     0.009941

General magnetic properties:
Magnetizability                         ...  NO

EPR properties:
g-Tensor (aka g-matrix)                 ...  NO
Zero-Field splitting spin-orbit         ...  NO
Zero-field splitting spin-spin          ...  NO
Hyperfine couplings                     ...  NO (   0 nuclei)
Quadrupole couplings                    ...  NO (   0 nuclei)
Contact density                         ...  NO (   0 nuclei)

NMR properties:
Chemical shifts                         ...  NO (   0 nuclei)
Spin-rotation constants                 ...  NO (   0 nuclei)
Spin-spin couplings                     ...  NO (   0 nuclei,    0 pairs)

Choice of magnetic origin               ... GIAO
Position of magnetic origin             ...     0.000000     0.000000     0.000000

Properties with geometric perturbations:
SCF Hessian                             ...  NO
IR spectrum                             ...  NO
VCD spectrum                            ...  NO
X-ray spectroscopy properties:
SCF XES/XAS/RIXS spectra                ...  NO

SCF SOC stabilization energy            ...  NO
Diagonal Born-Oppenheimer correction    ...  NO

-------------
DIPOLE MOMENT
-------------

Method             : SCF
Type of density    : Electron Density
Multiplicity       :   1
Irrep              :   0
Energy             :  -480.7290370783792923 Eh
Basis              : AO
                                X                 Y                 Z
Electronic contribution:     15.180392494       0.829855399      -0.558597981
Nuclear contribution   :    -15.147495511      -1.392086326       0.284720658
                        -----------------------------------------
Total Dipole Moment    :      0.032896983      -0.562230928      -0.273877323
                        -----------------------------------------
Magnitude (a.u.)       :      0.626254433
Magnitude (Debye)      :      1.591812266



--------------------
Rotational spectrum 
--------------------
 
Rotational constants in cm-1:             0.077512             0.024379             0.022327 
Rotational constants in MHz :          2323.758311           730.856225           669.336521 

Dipole components along the rotational axes: 
x,y,z [a.u.] :     0.060154    -0.578976     0.231004 
x,y,z [Debye]:     0.152900    -1.471640     0.587165 

 

Dipole moment calculation done in   0.0 sec 

Maximum memory used throughout the entire PROP-calculation: 13.3 MB

--------------------------------
SUGGESTED CITATIONS FOR THIS RUN
--------------------------------

Below you find a list of papers that are relevant to this ORCA run
We neither can nor want to force you to cite these papers, but we appreciate if you do
You receive ORCA, which is the product of decades of hard work by many enthusiastic individuals, for free
The only thing we kindly ask in return is that you cite our papers,
We deeply appreciate it, if you show your appreciation for ORCA by not just citing the generic ORCA reference.

Please note that relegating all ORCA citations to the supporting information does *not* help us.
SI sections are not indexed - citations you put there will not count into any citation statistics
But we need these citations in order to attract the funding resources that allow us to do what we are doing

Therefore, if you are a happy ORCA user, please consider citing a few of the papers listed below in the main body of your paper

In addition to the list printed below, the program has created the file /kaggle/working/Bta-1/Bta_InterFrag.bibtex that contains the list in bibtex format
You can import this file easily into all common literature databanks and citation aid programs

It goes without saying that in many instances, there are alternative algorithms to achieve similar
results as the ones you have gotten from ORCA. It is, of course, also the case that in some instances
ORCA just re-implements algorithms worked out by others. We are fully aware of that and we are also
fully appreciative of our colleagues work. Hence this citation list should not be read as indicating
that the listed papers, which are focused on our own work, are the only ones worth citing. It simply
meant to make it easier for users to cite ORCA specific papers. It is not a substitute for doing your
own literature research and citing the relevant literature in a scientifically appropriate manner.

List of essential papers. We consider these as the minimum necessary citations

  1. Neese, F.
     Software update: the ORCA program system, version 6.0
     WIRES Comput. Molec. Sci. 2025 15(1), e70019
     doi.org/10.1002/wcms.70019

List of papers to cite with high priority. The work reported in these papers was absolutely
necessary for this run to complete.
Our perspective: the developers of density functionals and basis sets usually get cited in chemistry papers
Good! But without the algorithms to do something with them, the functionals or basis sets would not do anything.
Hence, in our opinion, the algorithm design and method developments papers are equally worthy of getting cited

  1. Neese, F.
     An improvement of the resolution of the identity approximation for the formation of the Coulomb matrix
     J. Comp. Chem. 2003 24(14), 1740-1747
     doi.org/10.1002/jcc.10318
  2. Neese, F.; Wennmohs, F.; Hansen, A.; Becker, U.
     Efficient, approximate and parallel Hartree-Fock and hybrid DFT calculations. A 'chain-of-spheres' algorithm for the Hartree-Fock exchange
     Chem. Phys. 2009 356(1-3), 98-109
     doi.org/10.1016/j.chemphys.2008.10.036
  3. Grimme, S.; Antony, J.; Ehrlich, S.; Krieg, H.
     A consistent and accurate ab initio parametrization of density functional dispersion correction (DFT-D) for the 94 elements H-Pu
     J. Chem. Phys. 2010 132 , 154104
     doi.org/10.1063/1.3382344
  4. Grimme, S.; Ehrlich, S.; Goerigk, L.
     Effect of the damping function in dispersion corrected density functional theory
     J. Comput. Chem. 2011 32(7), 1456-1465
     doi.org/10.1002/jcc.21759
  5. Garcia-Rates, M.; Neese, F.
     Effect of the Solute Cavity on the Solvation Energy and its Derivatives within the Framework of the Gaussian Charge Scheme
     J. Comput. Chem. 2020 41 , 922-939
     doi.org/10.1002/jcc.26139
  6. Helmich-Paris, B.; de Souza, B.; Neese, F.; Izsák, R.
     An improved chain of spheres for exchange algorithm
     J. Chem. Phys. 2021 155(10), 104109
     doi.org/10.1063/5.0058766
  7. Neese, F.
     The SHARK Integral Generation and Digestion System
     J. Comp. Chem. 2022 44(3), 381
     doi.org/10.1002/jcc.26942

List of suggested additional citations. These are papers that are important in the 'surrounding' of 
of this run, or papers that preceded the highly important papers. If you like your results we are grateful for a citation.

  1. Izsak, R.; Neese, F.
     An overlap fitted chain of spheres exchange method
     J. Chem. Phys. 2011 135 , 144105
     doi.org/10.1063/1.3646921
  2. Izsak, R.; Hansen, A.; Neese, F.
     The resolution of identity and chain of spheres approximations for the LPNO-CCSD singles Fock term
     Molec. Phys. 2012 110 , 2413-2417
     doi.org/10.1080/00268976.2012.687466
  3. Neese, F.
     The ORCA program system
     WIRES Comput. Molec. Sci. 2012 2(1), 73-78
     doi.org/10.1002/wcms.81
  4. Izsak, R.; Neese, F.; Klopper, W.
     Robust fitting techniques in the chain of spheres approximation to the Fock exchange: The role of the complementary space
     J. Chem. Phys. 2013 139 , 
     doi.org/10.1063/1.4819264
  5. Neese, F.
     Software update: the ORCA program system, version 4.0
     WIRES Comput. Molec. Sci. 2018 8(1), 1-6
     doi.org/10.1002/wcms.1327
  6. Neese, F.; Wennmohs, F.; Becker, U.; Riplinger, C.
     The ORCA quantum chemistry program package
     J. Chem. Phys. 2020 152(22), 224108
     doi.org/10.1063/5.0004608
  7. Neese, F.
     Software update: The ORCA program system—Version 5.0
     WIRES Comput. Molec. Sci. 2022 12(1), e1606
     doi.org/10.1002/wcms.1606

List of optional additional citations

  1. Neese, F.
     Approximate second-order SCF convergence for spin unrestricted wavefunctions
     Chem. Phys. Lett. 2000 325(1-3), 93-98
     doi.org/10.1016/s0009-2614(00)00662-x

Timings for individual modules:

Sum of individual times          ...     1210.040 sec (=  20.167 min)
Startup calculation              ...       45.927 sec (=   0.765 min)   3.8 %
SCF iterations                   ...      698.185 sec (=  11.636 min)  57.7 %
Property calculations            ...        0.423 sec (=   0.007 min)   0.0 %
SCF Gradient evaluation          ...      465.377 sec (=   7.756 min)  38.5 %
Geometry relaxation              ...        0.128 sec (=   0.002 min)   0.0 %
                             ****ORCA TERMINATED NORMALLY****
TOTAL RUN TIME: 0 days 0 hours 20 minutes 17 seconds 768 msec
