
                                 *****************
                                 * O   R   C   A *
                                 *****************

                                            #,                                       
                                            ###                                      
                                            ####                                     
                                            #####                                    
                                            ######                                   
                                           ########,                                 
                                     ,,################,,,,,                         
                               ,,#################################,,                 
                          ,,##########################################,,             
                       ,#########################################, ''#####,          
                    ,#############################################,,   '####,        
                  ,##################################################,,,,####,       
                ,###########''''           ''''###############################       
              ,#####''   ,,,,##########,,,,          '''####'''          '####       
            ,##' ,,,,###########################,,,                        '##       
           ' ,,###''''                  '''############,,,                           
         ,,##''                                '''############,,,,        ,,,,,,###''
      ,#''                                            '''#######################'''  
     '                                                          ''''####''''         
             ,#######,   #######,   ,#######,      ##                                
            ,#'     '#,  ##    ##  ,#'     '#,    #''#        ,####,    ,#,          
            ##       ##  ##   ,#'  ##            #'  '#       #'       ,# #          
            ##       ##  #######   ##           ,######,      #####,      #          
            '#,     ,#'  ##    ##  '#,     ,#' ,#      #,     #,   #      #          
             '#######'   ##     ##  '#######'  #'      '#     '####' #    #          



                #########################################################
                #                        -***-                          #
                #          Department of theory and spectroscopy        #
                #                                                       #
                #                      Frank Neese                      #
                #                                                       #
                #     Directorship, Architecture, Infrastructure        #
                #                    SHARK, DRIVERS                     #
                #        Core code/Algorithms in most modules           #
                #                                                       #
                #        Max Planck Institute fuer Kohlenforschung      #
                #                Kaiser Wilhelm Platz 1                 #
                #                 D-45470 Muelheim/Ruhr                 #
                #                      Germany                          #
                #                                                       #
                #                  All rights reserved                  #
                #                        -***-                          #
                #########################################################


                         Program Version 6.1.1  -  RELEASE   -
                                (GIT: $487d211c$)
                          ($2025-11-21 10:33:24 +0100$)
                                                                         
                                  - NO-DMRG VERSION -                    
                                                                         


 With contributions from (in alphabetic order):
[Max-Planck-Institut fuer Kohlenforschung]                               
  Daniel Aravena         : Magnetic Suceptibility                        
  Michael Atanasov       : Ab Initio Ligand Field Theory (pilot matlab implementation)
  Alexander A. Auer      : GIAO ZORA, VPT2 properties, NMR spectrum      
  Ute Becker             : All parallelization in ORCA, NUMFREQ, NUMCALC 
  Giovanni Bistoni       : ED, misc. LED, open-shell LED, HFLD           
  Dmytro Bykov           : pre 5.0 version of the SCF Hessian            
  Marcos Casanova-Páez   : Triplet and SCS-CIS(D). UHF-(DLPNO)-IP/EA/STEOM-CCSD. UHF-CVS-IP/STEOM-CCSD   
  Vijay G. Chilkuri      : MRCI spin determinant printing, contributions to CSF-ICE 
  Pauline Colinet        : FMM embedding                                 
  Dipayan Datta          : RHF DLPNO-CCSD density                        
  Achintya Kumar Dutta   : EOM-CC, STEOM-CC                              
  Nicolas Foglia         : Exact transition moments, OPA infrastructure, MCD improvements    
  Dmitry Ganyushin       : Spin-Orbit,Spin-Spin,Magnetic field MRCI      
  Miquel Garcia-Rates    : C-PCM and meta-GGA Hessian, CCSD/C-PCM, Gaussian charge scheme 
  Tiago L. C. Gouveia    : GS-ROHF, GS-ROCIS                             
  Yang Guo               : DLPNO-NEVPT2, F12-NEVPT2, CIM, IAO-localization        
  Andreas Hansen         : Spin unrestricted coupled pair/coupled cluster methods 
  Ingolf Harden          : AUTO-CI MPn and infrastructure                
  Benjamin Helmich-Paris : MC-RPA, TRAH-(SCF,CASSCF), AVAS, COSX integrals, SCF dyn. polar., MC-PDFT, srDFT 
  Lee Huntington         : MR-EOM, pCC                                   
  Robert Izsak           : Overlap fitted RIJCOSX, COSX-SCS-MP3, EOM     
  Riya Kayal             : Wick's Theorem for AUTO-CI, AUTO-CI UHF-CCSDT 
  Emily Kempfer          : AUTO-CI RHF CISDT and CCSDT, approximate NEVPT4
  Christian Kollmar      : KDIIS, OOCD, Brueckner-CCSD(T), CCSD density, CASPT2, CASPT2-K, improved NEVPT2 
  Axel Koslowski         : Symmetry handling                             
  Simone Kossmann        : meta-GGA functionals, TD-DFT gradient, OOMP2, (MP2 Hessian; deprecated post 5.0) 
  Lucas Lang             : DCDCAS, Hyperfine gauge corrections, ICE-SOC+SSC
  Marvin Lechner         : AUTO-CI (C++ implementation), FIC-MRCC        
  Spencer Leger          : CASSCF response                               
  Dagmar Lenk            : GEPOL surface, SMD, ORCA-2-JSON               
  Dimitrios Liakos       : Extrapolation schemes; Compound Job, Property file
  Dimitrios Manganas     : Further ROCIS development; embedding schemes. LFT, Crystal Embedding 
  Dimitrios Pantazis     : SARC Basis sets                               
  Anastasios Papadopoulos: AUTO-CI, single reference methods and gradients 
  Taras Petrenko         : pre 6.0 DFT Hessian and TD-DFT gradient,  ECA, NRVS 
  Petra Pikulova         : Analytic Raman intensities                    
  Peter Pinski           : DLPNO-MP2, DLPNO-MP2 Gradient                 
  Shashank Vittal Rao    : ES-AILFT, MagRelax                            
  Christoph Reimann      : Effective Core Potentials                     
  Marius Retegan         : Local ZFS, SOC                                
  Christoph Riplinger    : Optimizer, TS searches, QM/MM, DLPNO-CCSD(T), (RO)-DLPNO pert. Triples 
  Michael Roemelt        : Original ROCIS implementation, recursive CI coupling coefficients
  Masaaki Saitow         : Open-shell DLPNO-CCSD energy and density      
  Barbara Sandhoefer     : DKH picture change effects                    
  Yorick L. A. Schmerwitz: GMF and freeze-and-release deltaSCF, NEB S-IDPP initial path                    
  Kantharuban Sivalingam : CASSCF convergence/infrastructure, NEVPT2, NEVPT3, NEVPT4(SD), FIC-MRCI and CEPA variants
  Bernardo de Souza      : ESD, SOC TD-DFT                               
  Georgi L. Stoychev     : AutoAux, RI-MP2 NMR, DLPNO-MP2 response, X2C  
  Van Anh Tran           : RI-MP2 g-tensors                              
  Willem Van den Heuvel  : Paramagnetic NMR                              
  Zikuan Wang            : NOTCH, Electric field optimization            
  Frank Wennmohs         : Technical directorship and infrastructure     
  Hang Xu                : AUTO-CI-Response properties                   
                                                                         
[FACCTs GmbH]                                                            
  Markus Bursch, Nicolas Foglia, Miquel Garcia-Rates, Ingolf Harden, Hagen Neugebauer, Anastasios Papadopoulos, 
  Christoph Riplinger, Bernardo de Souza, Georgi L. Stoychev                                                    
                                                                 
  APM, various basis sets, CI-OPT, improved COSX, DLPNO-Multilevel,           
  DOCKER, DRACO, updates on ESD, Fragmentator, GOAT, IRC, LR-CPCM, L-BFGS, MBIS, meta-GGA TD-DFT gradient, ML-optimized integration grids, 
  MM, NACMEs, nearIR, NEB, NEB-TS, NL-DFT gradient (VV10), 2- and 3-layer-ONIOM, interface openCOSMO-RS, QMMM,   
  Crystal-QMMM, RESP, rigid body optimization, SF, symmetry and pop. for TD-DFT, various functionals, SOLVATOR                                   
                                                                         
[Other institutions]                                                     
  V. Asgeirsson          : NEB                                           
  Christoph Bannwarth    : sTDA-DFT, sTD-DFT, PBEh-3c, B97-3c, D3        
  Giovanni Bistoni       : ETS/NOCV, ADLD/ADEX, COVALED                  
  Martin Brehm           : Molecular dynamics                            
  Ronald Cardenas        : ETS/NOCV                                      
  Martina Colucci        : COVALED                                       
  Sebastian Ehlert       : rSCAN, r2SCAN, r2SCAN-3c, D4, dhf basis sets  
  Marvin Friede          : D4 for Fr, Ra, Ac-Lr                          
  Lars Goerigk           : TD-DFT with DH, B97 family of functionals     
  Stefan Grimme          : VdW corrections, initial TS optimization, DFT functionals, gCP, sTDA/sTD-DF 
  Waldemar Hujo          : DFT-NL                                        
  H. Jonsson             : NEB                                           
  Holger Kruse           : gCP                                           
  Marcel Mueller         : wB97X-3c, vDZP basis set                      
  Hagen Neugebauer       : wr2SCAN, Native XTB                           
  Gianluca Regni         : ADLD/ADEX                                     
  Tobias Risthaus        : pre 6.0 range-separated hybrid DFT and stability analysis
  Lukas Wittmann         : regularized MP2, r2SCAN double-hybrids, wr2SCAN        
                                                                         
We gratefully acknowledge several colleagues who have allowed us to      
interface, adapt or use parts of their codes:                            
  Ed Valeev, F. Pavosevic, A. Kumar             : LibInt (2-el integral package), F12 methods 
  Garnet Chan, S. Sharma, J. Yang, R. Olivares  : DMRG                   
  Ulf Ekstrom                                   : XCFun DFT Library      
  Mihaly Kallay                                 : mrcc  (arbitrary order and MRCC methods)
  Frank Weinhold                                : gennbo (NPA and NBO analysis)           
  Simon Mueller                                 : openCOSMO-RS                            
  Christopher J. Cramer and Donald G. Truhlar   : smd solvation model                     
  S Lehtola, MJT Oliveira, MAL Marques          : LibXC Library                           
  Liviu Ungur et al                             : ANISO software                          


 Your calculation uses the libint2 library for the computation of 2-el integrals
 For citations please refer to: http://libint.valeyev.net

 Your ORCA version has been built with support for libXC version: 7.0.0
 For citations please refer to: https://libxc.gitlab.io

 This ORCA versions uses:
   CBLAS   interface :  Fast vector & matrix operations
   LAPACKE interface :  Fast linear algebra routines
   SCALAPACK package :  Parallel linear algebra routines
   Shared memory     :  Shared parallel matrices
   BLAS/LAPACK       :  OpenBLAS 0.3.29  USE64BITINT DYNAMIC_ARCH NO_AFFINITY SkylakeX SINGLE_THREADED
        Core in use  :  SkylakeX
   Copyright (c) 2011-2014, The OpenBLAS Project


  ***********************************
  * Starting time: Sun Mar 22 20:37:06 2026
  * Host name:     97d0b54d9bfa
  * Process ID:    1047
  * Working dir.:  /kaggle/working
  ***********************************

NOTE: MaxCore=3000 MB was set to SCF,MP2,MDCI,CIPSI,MRCI,RASCI and CIS
      => If you want to overwrite this, your respective input block should be placed after the MaxCore statement
Your calculation utilizes the atom-pairwise dispersion correction
with the Becke-Johnson damping scheme (D3BJ)


Warning: RI is on but no J-basis has been assigned. Assigning Def2/J (nothing to worry about!)
================================================================================

----- Orbital basis set information -----
Your calculation utilizes the basis: 6-31G(d,p)
   H-He, Li-Ne : W. J. Hehre, R. Ditchfield and J.A. Pople, J. Chem. Phys. 56, 2257 (1972).
                 Note: He and Ne are unpublished basis sets taken from the Gaussian program.
                 Note: Li and B from J. D. Dill and J. A. Pople, J. Chem. Phys. 62, 2921 (1975).
   Na - Ar     : M. M. Francl, W. J. Pietro, W. J. Hehre, J. S. Binkley, M. S. Gordon, 
                 D. J. DeFrees and J. A. Pople, J. Chem. Phys. 77, 3654 (1982).
   K - Zn      : V. A. Rassolov, J. A. Pople, M. A. Ratner, and T. L. Windus, J. Chem. Phys. 109, 1223 (1998).

----- AuxJ basis set information -----
Your calculation utilizes the auxiliary basis: def2/J
   H-Rn: F. Weigend, Phys. Chem. Chem. Phys. 8, 1057 (2006).
   Fr-Lr: K. Eichkorn, F. Weigend, O. Treutler, R. Ahlrichs; Theor. Chem. Acc. 97, 119 (1997).

================================================================================
                                        WARNINGS
                       Please study these warnings very carefully!
================================================================================


================================================================================
                                       INPUT FILE
================================================================================
NAME = /kaggle/working/Bta-2/Bta_InterFrag.inp
|  1> 
|  2> !RKS B3LYP 6-31G(d,p) TightSCF D3BJ
|  3> 
|  4> %pal nprocs 2 end
|  5> %maxcore 3000
|  6> 
|  7> %elprop
|  8>   Polar 1      # polarizability via CP-SCF
|  9> end
| 10> 
| 11> %output
| 12>   PrintLevel Normal
| 13>   Print[ P_OrbEn ] 2
| 14> end
| 15> 
| 16> *xyz 0 1
| 17>   O      3.108318   -1.094148    0.193173
| 18>   O      2.507126    0.897393   -0.668091
| 19>   N     -0.111728    1.581595    0.808558
| 20>   C     -1.722208   -0.131984   -0.057371
| 21>   C     -0.277137    0.445382   -0.118712
| 22>   C     -1.906730   -1.170236   -1.178668
| 23>   C     -2.020214   -0.788271    1.300959
| 24>   C     -2.730095    1.008141   -0.297156
| 25>   C      0.793873   -0.596783    0.212650
| 26>   C      2.192085   -0.159517   -0.140767
| 27>   H     -0.116961    0.753564   -1.165082
| 28>   H     -1.262194   -2.044666   -1.045762
| 29>   H     -2.941840   -1.528379   -1.193632
| 30>   H     -1.688437   -0.735196   -2.160824
| 31>   H     -1.842633   -0.091122    2.125000
| 32>   H     -1.401366   -1.676186    1.466368
| 33>   H     -3.068121   -1.105206    1.345956
| 34>   H     -2.506181    1.550171   -1.223962
| 35>   H     -3.743862    0.602756   -0.384124
| 36>   H     -2.737435    1.728033    0.527179
| 37>   H      0.786879   -0.835231    1.281769
| 38>   H      0.618491   -1.539879   -0.313661
| 39>   H     -0.712541    2.340588    0.495795
| 40>   H      0.836369    1.932555    0.686723
| 41>   H      3.986343   -0.752876   -0.056417
| 42> 
| 43> *
| 44> 
| 45>                          ****END OF INPUT****
================================================================================

                       ****************************
                       * Single Point Calculation *
                       ****************************

---------------------------------
CARTESIAN COORDINATES (ANGSTROEM)
---------------------------------
  O      3.108318   -1.094148    0.193173
  O      2.507126    0.897393   -0.668091
  N     -0.111728    1.581595    0.808558
  C     -1.722208   -0.131984   -0.057371
  C     -0.277137    0.445382   -0.118712
  C     -1.906730   -1.170236   -1.178668
  C     -2.020214   -0.788271    1.300959
  C     -2.730095    1.008141   -0.297156
  C      0.793873   -0.596783    0.212650
  C      2.192085   -0.159517   -0.140767
  H     -0.116961    0.753564   -1.165082
  H     -1.262194   -2.044666   -1.045762
  H     -2.941840   -1.528379   -1.193632
  H     -1.688437   -0.735196   -2.160824
  H     -1.842633   -0.091122    2.125000
  H     -1.401366   -1.676186    1.466368
  H     -3.068121   -1.105206    1.345956
  H     -2.506181    1.550171   -1.223962
  H     -3.743862    0.602756   -0.384124
  H     -2.737435    1.728033    0.527179
  H      0.786879   -0.835231    1.281769
  H      0.618491   -1.539879   -0.313661
  H     -0.712541    2.340588    0.495795
  H      0.836369    1.932555    0.686723
  H      3.986343   -0.752876   -0.056417

----------------------------
CARTESIAN COORDINATES (A.U.)
----------------------------
  NO LB      ZA    FRAG     MASS         X           Y           Z
   0 O     8.0000    0    15.999    5.873870   -2.067640    0.365044
   1 O     8.0000    0    15.999    4.737782    1.695827   -1.262509
   2 N     7.0000    0    14.007   -0.211135    2.988781    1.527953
   3 C     6.0000    0    12.011   -3.254501   -0.249414   -0.108415
   4 C     6.0000    0    12.011   -0.523713    0.841650   -0.224333
   5 C     6.0000    0    12.011   -3.603198   -2.211426   -2.227360
   6 C     6.0000    0    12.011   -3.817651   -1.489616    2.458456
   7 C     6.0000    0    12.011   -5.159132    1.905110   -0.561543
   8 C     6.0000    0    12.011    1.500203   -1.127756    0.401850
   9 C     6.0000    0    12.011    4.142440   -0.301443   -0.266011
  10 H     1.0000    0     1.008   -0.221024    1.424030   -2.201686
  11 H     1.0000    0     1.008   -2.385201   -3.863859   -1.976204
  12 H     1.0000    0     1.008   -5.559272   -2.888218   -2.255638
  13 H     1.0000    0     1.008   -3.190684   -1.389319   -4.083366
  14 H     1.0000    0     1.008   -3.482072   -0.172196    4.015668
  15 H     1.0000    0     1.008   -2.648198   -3.167532    2.771034
  16 H     1.0000    0     1.008   -5.797908   -2.088537    2.543488
  17 H     1.0000    0     1.008   -4.735996    2.929399   -2.312953
  18 H     1.0000    0     1.008   -7.074874    1.139044   -0.725889
  19 H     1.0000    0     1.008   -5.173002    3.265509    0.996224
  20 H     1.0000    0     1.008    1.486986   -1.578358    2.422192
  21 H     1.0000    0     1.008    1.168779   -2.909950   -0.592733
  22 H     1.0000    0     1.008   -1.346507    4.423070    0.936917
  23 H     1.0000    0     1.008    1.580508    3.652000    1.297718
  24 H     1.0000    0     1.008    7.533097   -1.422729   -0.106613

--------------------------------
INTERNAL COORDINATES (ANGSTROEM)
--------------------------------
 O      0   0   0     0.000000000000     0.00000000     0.00000000
 O      1   0   0     2.251542372073     0.00000000     0.00000000
 N      2   1   0     3.083345734640   103.87903973     0.00000000
 C      3   2   1     2.505959267961   103.21597297   292.12180751
 C      3   2   1     1.475862382321    67.88062533   290.86908414
 C      4   3   2     1.539260389342   142.18487123   345.29917659
 C      4   3   2     1.537719282348    96.38165261   118.89724470
 C      4   3   2     1.540525256729    88.17602506   227.87534716
 C      5   3   2     1.530676674667   108.04305359    53.40877697
 C      2   1   3     1.222448436850    30.57778461   333.02823822
 H      5   3   2     1.102507448047   111.39635309   296.03025886
 H      6   4   3     1.094403255218   112.32571566    72.11390700
 H      6   4   3     1.095419116980   110.10599277   191.59682845
 H      6   4   3     1.096148732511   111.16989952   310.99427030
 H      7   4   3     1.093889989644   111.22128068    24.84633237
 H      7   4   3     1.094863476243   111.71771886   263.90887630
 H      7   4   3     1.095710547947   110.18595545   144.55201090
 H      8   4   3     1.096769511763   111.32862654    79.75658363
 H      8   4   3     1.095273464272   110.12064305   199.19625116
 H      8   4   3     1.094452630080   111.95979598   318.45970617
 H      9   5   3     1.095409421587   110.79498543    51.37379392
 H      9   5   3     1.094162775761   111.75048646   169.72870963
 H      3   2   1     1.017284291232   121.32909747   192.20170085
 H      3   2   1     1.018285132089    39.49946835   117.70731293
 H      1   2   3     0.974520213597    80.37778267   207.33143818

---------------------------
INTERNAL COORDINATES (A.U.)
---------------------------
 O      0   0   0     0.000000000000     0.00000000     0.00000000
 O      1   0   0     4.254798462138     0.00000000     0.00000000
 N      2   1   0     5.826679014663   103.87903973     0.00000000
 C      3   2   1     4.735576719209   103.21597297   292.12180751
 C      3   2   1     2.788975713943    67.88062533   290.86908414
 C      4   3   2     2.908780584649   142.18487123   345.29917659
 C      4   3   2     2.905868314488    96.38165261   118.89724470
 C      4   3   2     2.911170837606    88.17602506   227.87534716
 C      5   3   2     2.892559714702   108.04305359    53.40877697
 C      2   1   3     2.310092758487    30.57778461   333.02823822
 H      5   3   2     2.083437137418   111.39635309   296.03025886
 H      6   4   3     2.068122432434   112.32571566    72.11390700
 H      6   4   3     2.070042132954   110.10599277   191.59682845
 H      6   4   3     2.071420906490   111.16989952   310.99427030
 H      7   4   3     2.067152501065   111.22128068    24.84633237
 H      7   4   3     2.068992124131   111.71771886   263.90887630
 H      7   4   3     2.070592857669   110.18595545   144.55201090
 H      8   4   3     2.072594009266   111.32862654    79.75658363
 H      8   4   3     2.069766889225   110.12064305   199.19625116
 H      8   4   3     2.068215737401   111.95979598   318.45970617
 H      9   5   3     2.070023811316   110.79498543    51.37379392
 H      9   5   3     2.067667992119   111.75048646   169.72870963
 H      3   2   1     1.922388710768   121.32909747   192.20170085
 H      3   2   1     1.924280025892    39.49946835   117.70731293
 H      1   2   3     1.841576315669    80.37778267   207.33143818

---------------------
BASIS SET INFORMATION
---------------------
There are 4 groups of distinct atoms

 Group   1 Type O   : 10s4p1d contracted to 3s2p1d pattern {631/31/1}
 Group   2 Type N   : 10s4p1d contracted to 3s2p1d pattern {631/31/1}
 Group   3 Type C   : 10s4p1d contracted to 3s2p1d pattern {631/31/1}
 Group   4 Type H   : 4s1p contracted to 2s1p pattern {31/1}

Atom   0O    basis set group =>   1
Atom   1O    basis set group =>   1
Atom   2N    basis set group =>   2
Atom   3C    basis set group =>   3
Atom   4C    basis set group =>   3
Atom   5C    basis set group =>   3
Atom   6C    basis set group =>   3
Atom   7C    basis set group =>   3
Atom   8C    basis set group =>   3
Atom   9C    basis set group =>   3
Atom  10H    basis set group =>   4
Atom  11H    basis set group =>   4
Atom  12H    basis set group =>   4
Atom  13H    basis set group =>   4
Atom  14H    basis set group =>   4
Atom  15H    basis set group =>   4
Atom  16H    basis set group =>   4
Atom  17H    basis set group =>   4
Atom  18H    basis set group =>   4
Atom  19H    basis set group =>   4
Atom  20H    basis set group =>   4
Atom  21H    basis set group =>   4
Atom  22H    basis set group =>   4
Atom  23H    basis set group =>   4
Atom  24H    basis set group =>   4
---------------------------------
AUXILIARY/J BASIS SET INFORMATION
---------------------------------
There are 4 groups of distinct atoms

 Group   1 Type O   : 12s5p4d2f1g contracted to 6s4p3d1f1g pattern {711111/2111/211/2/1}
 Group   2 Type N   : 12s5p4d2f1g contracted to 6s4p3d1f1g pattern {711111/2111/211/2/1}
 Group   3 Type C   : 12s5p4d2f1g contracted to 6s4p3d1f1g pattern {711111/2111/211/2/1}
 Group   4 Type H   : 5s2p1d contracted to 3s1p1d pattern {311/2/1}

Atom   0O    basis set group =>   1
Atom   1O    basis set group =>   1
Atom   2N    basis set group =>   2
Atom   3C    basis set group =>   3
Atom   4C    basis set group =>   3
Atom   5C    basis set group =>   3
Atom   6C    basis set group =>   3
Atom   7C    basis set group =>   3
Atom   8C    basis set group =>   3
Atom   9C    basis set group =>   3
Atom  10H    basis set group =>   4
Atom  11H    basis set group =>   4
Atom  12H    basis set group =>   4
Atom  13H    basis set group =>   4
Atom  14H    basis set group =>   4
Atom  15H    basis set group =>   4
Atom  16H    basis set group =>   4
Atom  17H    basis set group =>   4
Atom  18H    basis set group =>   4
Atom  19H    basis set group =>   4
Atom  20H    basis set group =>   4
Atom  21H    basis set group =>   4
Atom  22H    basis set group =>   4
Atom  23H    basis set group =>   4
Atom  24H    basis set group =>   4


           ************************************************************
           *        Program running with 2 parallel MPI-processes     *
           *              working on a common directory               *
           ************************************************************
------------------------------------------------------------------------------
                             ORCA STARTUP CALCULATIONS
                           -- RI-GTO INTEGRALS CHOSEN --
------------------------------------------------------------------------------
------------------------------------------------------------------------------
                   ___                                                        
                  /   \      - P O W E R E D   B Y -                         
                 /     \                                                     
                 |  |  |   _    _      __       _____    __    __             
                 |  |  |  | |  | |    /  \     |  _  \  |  |  /  |          
                  \  \/   | |  | |   /    \    | | | |  |  | /  /          
                 / \  \   | |__| |  /  /\  \   | |_| |  |  |/  /          
                |  |  |   |  __  | /  /__\  \  |    /   |      \           
                |  |  |   | |  | | |   __   |  |    \   |  |\   \          
                \     /   | |  | | |  |  |  |  | |\  \  |  | \   \       
                 \___/    |_|  |_| |__|  |__|  |_| \__\ |__|  \__/        
                                                                              
                      - O R C A' S   B I G   F R I E N D -                    
                                      &                                       
                       - I N T E G R A L  F E E D E R -                       
                                                                              
 v1 FN, 2020, v2 2021, v3 2022-2024                                           
------------------------------------------------------------------------------


----------------------
SHARK INTEGRAL PACKAGE
----------------------

Number of atoms                             ...     25
Number of basis functions                   ...    215
Number of shells                            ...    105
Maximum angular momentum                    ...      2
Integral batch strategy                     ... SHARK/LIBINT Hybrid
RI-J (if used) integral strategy            ... SPLIT-RIJ (Revised 2003 algorithm where possible)
Printlevel                                  ...      1
Contraction scheme used                     ... SEGMENTED contraction
Prescreening option                         ... SCHWARTZ
   Thresh                                   ... 2.500e-11
   Tcut                                     ... 2.500e-12
   Tpresel                                  ... 2.500e-12 
Coulomb Range Separation                    ... NOT USED
Exchange Range Separation                   ... NOT USED
Multipole approximations                    ... NOT USED
Finite Nucleus Model                        ... NOT USED
CABS basis                                  ... NOT available
Auxiliary Coulomb fitting basis             ... AVAILABLE
   # of basis functions in Aux-J            ...    655
   # of shells in Aux-J                     ...    225
   Maximum angular momentum in Aux-J        ...      4
Auxiliary J/K fitting basis                 ... NOT available
Auxiliary Correlation fitting basis         ... NOT available
Auxiliary 'external' fitting basis          ... NOT available

Checking pre-screening integrals            ... done (  0.0 sec) Dimension = 105
   => SHARK Basis and OBASIS are compatible. Storing Pre-screening
Shell pair information
Shell pair cut-off parameter TPreSel        ...   2.5e-12
Total number of shell pairs                 ...      5565
Shell pairs after pre-screening             ...      4936
Total number of primitive shell pairs       ...     25680
Primitive shell pairs kept                  ...     15060
          la=0 lb=0:   1645 shell pairs
          la=1 lb=0:   1859 shell pairs
          la=1 lb=1:    550 shell pairs
          la=2 lb=0:    531 shell pairs
          la=2 lb=1:    304 shell pairs
          la=2 lb=2:     47 shell pairs

Checking whether 4 symmetric matrices of dimension 215 fit in memory
:Max Core in MB      =   3000.00
 MB in use           =      9.97
 MB left             =   2990.03
 MB needed           =      0.71
 Data fit in memory  = YES
Calculating RI/J V-Matrix + Cholesky decomp.... done (  0.0 sec)
Calculating Nuclear repulsion               ... done (  0.0 sec) ENN=    581.989438468319 Eh

Diagonalization of the overlap matrix:
Smallest eigenvalue                        ... 2.582e-03
Time for diagonalization                   ...    0.005 sec
Threshold for overlap eigenvalues          ... 1.000e-07
Number of eigenvalues below threshold      ... 0
Time for construction of square roots      ...    0.002 sec
Total time needed                          ...    0.007 sec

-------------------
DFT GRID GENERATION
-------------------

General Integration Accuracy     IntAcc      ... 4.388
Radial Grid Type                 RadialGrid  ... OptM3 with GC (2021)
Angular Grid (max. ang.)         AngularGrid ... 4 (Lebedev-302)
Angular grid pruning method      GridPruning ... 4 (adaptive)
Weight generation scheme         WeightScheme... mBecke (2022)
Basis function cutoff            BFCut       ... 1.0000e-11
Integration weight cutoff        WCut        ... 1.0000e-14
Partially contracted basis set               ... off
Rotationally invariant grid construction     ... off
Angular grids for H and He will be reduced by one unit

Total number of grid points                  ...   107634
Total number of batches                      ...     1695
Average number of points per batch           ...       63
Average number of grid points per atom       ...     4305

--------------------
COSX GRID GENERATION
--------------------

GRIDX 1
-------
General Integration Accuracy     IntAcc      ... 3.816
Radial Grid Type                 RadialGrid  ... OptM3 with GC (2021)
Angular Grid (max. ang.)         AngularGrid ... 1 (Lebedev-50)
Angular grid pruning method      GridPruning ... 4 (adaptive)
Weight generation scheme         WeightScheme... mBecke (2022)
Basis function cutoff            BFCut       ... 1.0000e-11
Integration weight cutoff        WCut        ... 1.0000e-14
Partially contracted basis set               ... on
Rotationally invariant grid construction     ... off
Angular grids for H and He will be reduced by one unit

Total number of grid points                  ...    13748
Total number of batches                      ...      123
Average number of points per batch           ...      111
Average number of grid points per atom       ...      550
UseSFitting                                  ... on

GRIDX 2
-------
General Integration Accuracy     IntAcc      ... 4.020
Radial Grid Type                 RadialGrid  ... OptM3 with GC (2021)
Angular Grid (max. ang.)         AngularGrid ... 2 (Lebedev-110)
Angular grid pruning method      GridPruning ... 4 (adaptive)
Weight generation scheme         WeightScheme... mBecke (2022)
Basis function cutoff            BFCut       ... 1.0000e-11
Integration weight cutoff        WCut        ... 1.0000e-14
Partially contracted basis set               ... on
Rotationally invariant grid construction     ... off
Angular grids for H and He will be reduced by one unit

Total number of grid points                  ...    28858
Total number of batches                      ...      240
Average number of points per batch           ...      120
Average number of grid points per atom       ...     1154
UseSFitting                                  ... on

GRIDX 3
-------
General Integration Accuracy     IntAcc      ... 4.338
Radial Grid Type                 RadialGrid  ... OptM3 with GC (2021)
Angular Grid (max. ang.)         AngularGrid ... 3 (Lebedev-194)
Angular grid pruning method      GridPruning ... 4 (adaptive)
Weight generation scheme         WeightScheme... mBecke (2022)
Basis function cutoff            BFCut       ... 1.0000e-11
Integration weight cutoff        WCut        ... 1.0000e-14
Partially contracted basis set               ... on
Rotationally invariant grid construction     ... off
Angular grids for H and He will be reduced by one unit

Total number of grid points                  ...    62904
Total number of batches                      ...      504
Average number of points per batch           ...      124
Average number of grid points per atom       ...     2516
UseSFitting                                  ... on
Grids setup in   2.0 sec
Initializing property integral containers    ... done (  0.0 sec)

SHARK setup successfully completed in   2.1 seconds

Maximum memory used throughout the entire STARTUP-calculation: 37.1 MB


           ************************************************************
           *        Program running with 2 parallel MPI-processes     *
           *              working on a common directory               *
           ************************************************************
-------------------------------------------------------------------------------
                                 ORCA GUESS
                   Start orbitals & Density for SCF / CASSCF
-------------------------------------------------------------------------------

------------
SCF SETTINGS
------------
Hamiltonian:
 Density Functional     Method          .... DFT(GTOs)
 Exchange Functional    Exchange        .... B88
   X-Alpha parameter    XAlpha          ....  0.666667
   Becke's b parameter  XBeta           ....  0.004200
 Correlation Functional Correlation     .... LYP
 LDA part of GGA corr.  LDAOpt          .... VWN-5
 Gradients option       PostSCFGGA      .... off
 Hybrid DFT is turned on
   Fraction HF Exchange ScalHFX         ....  0.200000
   Scaling of DF-GGA-X  ScalDFX         ....  0.720000
   Scaling of DF-GGA-C  ScalDFC         ....  0.810000
   Scaling of DF-LDA-C  ScalLDAC        ....  1.000000
   Perturbative correction              ....  0.000000
   NL short-range parameter             ....  4.800000
 RI-approximation to the Coulomb term is turned on
   Number of AuxJ basis functions       .... 655
   RIJ-COSX (HFX calculated with COS-X)).... on


General Settings:
 Integral files         IntName         .... /kaggle/working/Bta-2/Bta_InterFrag
 Hartree-Fock type      HFTyp           .... RHF
 Total Charge           Charge          ....    0
 Multiplicity           Mult            ....    1
 Number of Electrons    NEL             ....   80
 Basis Dimension        Dim             ....  215
 Nuclear Repulsion      ENuc            ....    581.9894384683 Eh

Convergence Acceleration:
 AO-DIIS                CNVDIIS         .... on
   Start iteration      DIISMaxIt       ....    12
   Startup error        DIISStart       ....  0.200000
   # of expansion vecs  DIISMaxEq       ....     5
   Bias factor          DIISBfac        ....   1.050
   Max. coefficient     DIISMaxC        ....  10.000
 MO-DIIS                CNVKDIIS        .... off
 Trust-Rad. Augm. Hess. CNVTRAH         .... auto
   Auto Start mean grad. ratio tolernc. ....  1.125000
   Auto Start start iteration           ....    50
   Auto Start num. interpolation iter.  ....    10
   Max. Number of Micro iterations      ....    24
   Max. Number of Macro iterations      .... Maxiter - #DIIS iter
   Number of Davidson start vectors     ....     2
   Converg. threshold    (grad. norm)   ....   1.000e-05
   Grad. Scal. Fac. for Micro threshold ....   0.100
   Minimum threshold for Micro iter.    ....   1.000e-02
   NR start threshold (gradient norm)   ....   1.000e-04
   Initial trust radius                 ....   0.400
   Minimum AH scaling param. (alpha)    ....   1.000
   Maximum AH scaling param. (alpha)    .... 1000.000
   Quad. conv. algorithm                .... NR
   White noise on init. David. guess    .... on
   Maximum white noise                  ....   0.010
   Pseudo random numbers                .... off
   Inactive MOs                         .... canonical
   Orbital update algorithm             .... Taylor
   Preconditioner                       .... Diag
   Full preconditioner red. dimension   ....   250
 SOSCF                 CNVSOSCF           .... on
   Start iteration     SOSCFMaxIt         ....   150
   Startup grad/error  SOSCFStart         ....  0.003300
   Hessian update      SOSCFHessUp        .... L-BFGS
   Autom. constraints  SOSCFAutoConstrain .... off
 Level Shifting         CNVShift        .... on
   Level shift para.    LevelShift      ....    0.2500
   Turn off err/grad.   ShiftErr        ....    0.0010
 Zerner damping         CNVZerner       .... off
 Static damping         CNVDamp         .... on
   Fraction old density DampFac         ....    0.7000
   Max. Damping (<1)    DampMax         ....    0.9800
   Min. Damping (>=0)   DampMin         ....    0.0000
   Turn off err/grad.   DampErr         ....    0.1000

SCF Procedure:
 Maximum # iterations   MaxIter         ....   125
 SCF integral mode      SCFMode         .... Direct
   Integral package                     .... SHARK and LIBINT hybrid scheme
 Reset frequency        DirectResetFreq ....    20
 Integral Threshold     Thresh          ....  2.500e-11 Eh
 Primitive CutOff       TCut            ....  2.500e-12 Eh

Convergence Tolerance:
 Convergence Check Mode ConvCheckMode   .... Total+1el-Energy
 Convergence forced     ConvForced      .... 0
 Energy Change          TolE            ....  1.000e-08 Eh
 1-El. energy change                    ....  1.000e-05 Eh
 Orbital Gradient       TolG            ....  1.000e-05
 Orbital Rotation angle TolX            ....  1.000e-05
 DIIS Error             TolErr          ....  5.000e-07

------------------------------
INITIAL GUESS: MODEL POTENTIAL
------------------------------
Loading Hartree-Fock densities                     ... done
Calculating cut-offs                               ... done
Initializing the effective Hamiltonian             ... done
Setting up the integral package (SHARK)            ... done
Starting the Coulomb interaction                   ... done (   0.2 sec)
Making the grid                                    ... done (   0.3 sec)
Mapping shells                                     ... done
Starting the XC term evaluation                    ... done (   0.2 sec)
  promolecular density results
     # of electrons  =     79.994963876
     EX              =    -63.432914997
     EC              =     -2.672991214
     EX+EC           =    -66.105906211
Transforming the Hamiltonian                       ... done (   0.0 sec)
Diagonalizing the Hamiltonian                      ... done (   0.0 sec)
Back transforming the eigenvectors                 ... done (   0.0 sec)
Now organizing SCF variables                       ... done
                      ------------------
                      INITIAL GUESS DONE (   0.7 sec)
                      ------------------
             **** ENERGY FILE WAS UPDATED (/kaggle/working/Bta-2/Bta_InterFrag.en.tmp) ****
Finished Guess after   1.0 sec
Maximum memory used throughout the entire GUESS-calculation: 14.2 MB


           ************************************************************
           *        Program running with 2 parallel MPI-processes     *
           *              working on a common directory               *
           ************************************************************

-------------------------------------------------------------------------------------------
                                      ORCA LEAN-SCF
                              memory conserving SCF solver
-------------------------------------------------------------------------------------------

----------------------------------------D-I-I-S--------------------------------------------
Iteration    Energy (Eh)           Delta-E    RMSDP     MaxDP     DIISErr   Damp  Time(sec)
-------------------------------------------------------------------------------------------
               ***  Starting incremental Fock matrix formation  ***
    1    -480.2959852419876370     0.00e+00  4.49e-03  9.60e-02  2.62e-01  0.700   4.7
    2    -480.4978836022710311    -2.02e-01  3.06e-03  5.46e-02  1.12e-01  0.700   2.6
                               ***Turning on AO-DIIS***
    3    -480.5723666128471905    -7.45e-02  1.15e-03  1.68e-02  3.74e-02  0.700   2.5
    4    -480.6170777927156905    -4.47e-02  1.64e-03  2.07e-02  1.70e-02  0.000   2.4
    5    -480.7164552691333483    -9.94e-02  4.27e-04  6.57e-03  8.45e-03  0.000   2.4
                              *** Initializing SOSCF ***
---------------------------------------S-O-S-C-F--------------------------------------
Iteration    Energy (Eh)           Delta-E    RMSDP     MaxDP     MaxGrad    Time(sec)
--------------------------------------------------------------------------------------
    6    -480.7171473066530325    -6.92e-04  1.44e-04  2.39e-03  2.53e-03     2.3
               *** Restarting incremental Fock matrix formation ***
    7    -480.7172259005862998    -7.86e-05  8.47e-05  1.40e-03  3.11e-04     4.8
    8    -480.7172272007112497    -1.30e-06  2.58e-05  5.97e-04  2.35e-04     3.3
    9    -480.7172305023836998    -3.30e-06  1.49e-05  3.99e-04  1.27e-04     3.0
   10    -480.7172301744135439     3.28e-07  8.73e-06  2.50e-04  2.14e-04     2.8
   11    -480.7172306609922998    -4.87e-07  2.10e-06  4.06e-05  6.27e-06     2.6
   12    -480.7172306658958405    -4.90e-09  1.02e-06  2.59e-05  1.03e-05     2.2
                 **** Energy Check signals convergence ****

               *****************************************************
               *                     SUCCESS                       *
               *           SCF CONVERGED AFTER  12 CYCLES          *
               *****************************************************

Recomputing exchange energy using gridx3       ... done (    7.920 sec)
Old exchange energy                            :    -12.956569642 Eh
New exchange energy                            :    -12.956547930 Eh
Exchange energy change after final integration :      0.000021713 Eh
Total energy after final integration           :   -480.717208961 Eh
             **** ENERGY FILE WAS UPDATED (/kaggle/working/Bta-2/Bta_InterFrag.en.tmp) ****

----------------
TOTAL SCF ENERGY
----------------

Total Energy       :       -480.71720896073884 Eh          -13080.98028 eV

Components:
Nuclear Repulsion  :        581.98943846831935 Eh           15836.73774 eV
Electronic Energy  :      -1062.70666914183084 Eh          -28917.71862 eV
One Electron Energy:      -1807.67376696825932 Eh          -49189.30394 eV
Two Electron Energy:        744.96709782642847 Eh           20271.58532 eV

Virial components:
Potential Energy   :       -958.40060524496766 Eh          -26079.40632 eV
Kinetic Energy     :        477.68339628422882 Eh           12998.42604 eV
Virial Ratio       :          2.00635109509794

DFT components:
N(Alpha)           :       39.999982457754 electrons
N(Beta)            :       39.999982457754 electrons
N(Total)           :       79.999964915508 electrons
E(X)               :      -51.414130395080 Eh       
E(C)               :       -3.153961528421 Eh       
E(XC)              :      -54.568091923501 Eh       

---------------
SCF CONVERGENCE
---------------

  Last Energy change         ...    4.9035e-09  Tolerance :   1.0000e-08
  Last MAX-Density change    ...    2.5938e-05  Tolerance :   1.0000e-07
  Last RMS-Density change    ...    1.0236e-06  Tolerance :   5.0000e-09
  Last DIIS Error            ...    2.5281e-03  Tolerance :   5.0000e-07
  Last Orbital Gradient      ...    1.0310e-05  Tolerance :   1.0000e-05
  Last Orbital Rotation      ...    4.6909e-06  Tolerance :   1.0000e-05


----------------
ORBITAL ENERGIES
----------------

  NO   OCC          E(Eh)            E(eV) 
   0   2.0000     -19.191832      -522.2363 
   1   2.0000     -19.135554      -520.7049 
   2   2.0000     -14.296976      -389.0405 
   3   2.0000     -10.317488      -280.7531 
   4   2.0000     -10.203602      -277.6541 
   5   2.0000     -10.189088      -277.2592 
   6   2.0000     -10.186879      -277.1991 
   7   2.0000     -10.165356      -276.6134 
   8   2.0000     -10.164721      -276.5961 
   9   2.0000     -10.157557      -276.4012 
  10   2.0000      -1.103195       -30.0195 
  11   2.0000      -1.010000       -27.4835 
  12   2.0000      -0.881537       -23.9878 
  13   2.0000      -0.800045       -21.7703 
  14   2.0000      -0.760950       -20.7065 
  15   2.0000      -0.679238       -18.4830 
  16   2.0000      -0.676612       -18.4115 
  17   2.0000      -0.649926       -17.6854 
  18   2.0000      -0.588249       -16.0071 
  19   2.0000      -0.519957       -14.1487 
  20   2.0000      -0.495924       -13.4948 
  21   2.0000      -0.489021       -13.3070 
  22   2.0000      -0.477767       -13.0007 
  23   2.0000      -0.463532       -12.6133 
  24   2.0000      -0.446159       -12.1406 
  25   2.0000      -0.430119       -11.7041 
  26   2.0000      -0.421058       -11.4576 
  27   2.0000      -0.413392       -11.2490 
  28   2.0000      -0.389426       -10.5968 
  29   2.0000      -0.378223       -10.2920 
  30   2.0000      -0.371680       -10.1139 
  31   2.0000      -0.370029       -10.0690 
  32   2.0000      -0.359871        -9.7926 
  33   2.0000      -0.353117        -9.6088 
  34   2.0000      -0.319140        -8.6842 
  35   2.0000      -0.318036        -8.6542 
  36   2.0000      -0.313559        -8.5324 
  37   2.0000      -0.310414        -8.4468 
  38   2.0000      -0.274212        -7.4617 
  39   2.0000      -0.229169        -6.2360 
  40   0.0000       0.009256         0.2519 
  41   0.0000       0.074577         2.0293 
  42   0.0000       0.080007         2.1771 
  43   0.0000       0.117076         3.1858 
  44   0.0000       0.122746         3.3401 
  45   0.0000       0.133767         3.6400 
  46   0.0000       0.144293         3.9264 
  47   0.0000       0.148728         4.0471 
  48   0.0000       0.161179         4.3859 
  49   0.0000       0.171430         4.6649 
  50   0.0000       0.179760         4.8915 
  51   0.0000       0.187275         5.0960 
  52   0.0000       0.201415         5.4808 
  53   0.0000       0.210142         5.7183 
  54   0.0000       0.215146         5.8544 
  55   0.0000       0.220087         5.9889 
  56   0.0000       0.233233         6.3466 
  57   0.0000       0.239746         6.5238 
  58   0.0000       0.253827         6.9070 
  59   0.0000       0.256072         6.9681 
  60   0.0000       0.274725         7.4756 
  61   0.0000       0.283578         7.7166 
  62   0.0000       0.294179         8.0050 
  63   0.0000       0.337165         9.1747 
  64   0.0000       0.390148        10.6165 
  65   0.0000       0.506078        13.7711 
  66   0.0000       0.511588        13.9210 
  67   0.0000       0.527752        14.3609 
  68   0.0000       0.532283        14.4842 
  69   0.0000       0.539885        14.6910 
  70   0.0000       0.559839        15.2340 
  71   0.0000       0.579358        15.7651 
  72   0.0000       0.600970        16.3532 
  73   0.0000       0.625201        17.0126 
  74   0.0000       0.628227        17.0949 
  75   0.0000       0.656645        17.8682 
  76   0.0000       0.669326        18.2133 
  77   0.0000       0.680998        18.5309 
  78   0.0000       0.704207        19.1625 
  79   0.0000       0.713893        19.4260 
  80   0.0000       0.730747        19.8846 
  81   0.0000       0.749055        20.3828 
  82   0.0000       0.754348        20.5268 
  83   0.0000       0.755657        20.5625 
  84   0.0000       0.794438        21.6177 
  85   0.0000       0.837086        22.7783 
  86   0.0000       0.842445        22.9241 
  87   0.0000       0.852362        23.1939 
  88   0.0000       0.859318        23.3832 
  89   0.0000       0.864808        23.5326 
  90   0.0000       0.873540        23.7702 
  91   0.0000       0.881508        23.9871 
  92   0.0000       0.891141        24.2492 
  93   0.0000       0.897382        24.4190 
  94   0.0000       0.906785        24.6749 
  95   0.0000       0.912896        24.8412 
  96   0.0000       0.921664        25.0797 
  97   0.0000       0.935005        25.4428 
  98   0.0000       0.939537        25.5661 
  99   0.0000       0.947291        25.7771 
 100   0.0000       0.960664        26.1410 
 101   0.0000       0.968211        26.3464 
 102   0.0000       0.981613        26.7110 
 103   0.0000       0.995193        27.0806 
 104   0.0000       1.005075        27.3495 
 105   0.0000       1.009636        27.4736 
 106   0.0000       1.036723        28.2107 
 107   0.0000       1.041364        28.3370 
 108   0.0000       1.095796        29.8181 
 109   0.0000       1.124347        30.5950 
 110   0.0000       1.169072        31.8121 
 111   0.0000       1.225212        33.3397 
 112   0.0000       1.273722        34.6597 
 113   0.0000       1.289681        35.0940 
 114   0.0000       1.342333        36.5268 
 115   0.0000       1.379881        37.5485 
 116   0.0000       1.423490        38.7351 
 117   0.0000       1.456470        39.6326 
 118   0.0000       1.466158        39.8962 
 119   0.0000       1.487741        40.4835 
 120   0.0000       1.496424        40.7198 
 121   0.0000       1.535095        41.7721 
 122   0.0000       1.569419        42.7061 
 123   0.0000       1.590054        43.2676 
 124   0.0000       1.632368        44.4190 
 125   0.0000       1.657186        45.0943 
 126   0.0000       1.679869        45.7116 
 127   0.0000       1.715184        46.6725 
 128   0.0000       1.721091        46.8333 
 129   0.0000       1.750787        47.6413 
 130   0.0000       1.763232        47.9800 
 131   0.0000       1.804543        49.1041 
 132   0.0000       1.818394        49.4810 
 133   0.0000       1.833628        49.8956 
 134   0.0000       1.839297        50.0498 
 135   0.0000       1.847127        50.2629 
 136   0.0000       1.869519        50.8722 
 137   0.0000       1.882418        51.2232 
 138   0.0000       1.888431        51.3868 
 139   0.0000       1.910331        51.9828 
 140   0.0000       1.927439        52.4483 
 141   0.0000       1.944991        52.9259 
 142   0.0000       1.969713        53.5986 
 143   0.0000       2.005091        54.5613 
 144   0.0000       2.018422        54.9241 
 145   0.0000       2.042543        55.5804 
 146   0.0000       2.051885        55.8346 
 147   0.0000       2.055043        55.9206 
 148   0.0000       2.063844        56.1600 
 149   0.0000       2.073651        56.4269 
 150   0.0000       2.101082        57.1733 
 151   0.0000       2.129683        57.9516 
 152   0.0000       2.140853        58.2556 
 153   0.0000       2.146421        58.4071 
 154   0.0000       2.154420        58.6247 
 155   0.0000       2.159042        58.7505 
 156   0.0000       2.167861        58.9905 
 157   0.0000       2.171769        59.0968 
 158   0.0000       2.208698        60.1017 
 159   0.0000       2.252501        61.2937 
 160   0.0000       2.286889        62.2294 
 161   0.0000       2.293891        62.4199 
 162   0.0000       2.305366        62.7322 
 163   0.0000       2.339586        63.6634 
 164   0.0000       2.364954        64.3537 
 165   0.0000       2.365449        64.3671 
 166   0.0000       2.380373        64.7732 
 167   0.0000       2.399088        65.2825 
 168   0.0000       2.415365        65.7254 
 169   0.0000       2.502642        68.1003 
 170   0.0000       2.522579        68.6429 
 171   0.0000       2.531113        68.8751 
 172   0.0000       2.534409        68.9648 
 173   0.0000       2.545560        69.2682 
 174   0.0000       2.578929        70.1762 
 175   0.0000       2.600587        70.7656 
 176   0.0000       2.637432        71.7682 
 177   0.0000       2.645500        71.9877 
 178   0.0000       2.669304        72.6355 
 179   0.0000       2.689288        73.1792 
 180   0.0000       2.700842        73.4936 
 181   0.0000       2.720788        74.0364 
 182   0.0000       2.738729        74.5246 
 183   0.0000       2.751361        74.8683 
 184   0.0000       2.766917        75.2916 
 185   0.0000       2.782009        75.7023 
 186   0.0000       2.839368        77.2631 
 187   0.0000       2.849223        77.5313 
 188   0.0000       2.871645        78.1414 
 189   0.0000       2.884526        78.4919 
 190   0.0000       2.896724        78.8239 
 191   0.0000       2.903061        78.9963 
 192   0.0000       2.918180        79.4077 
 193   0.0000       2.922284        79.5194 
 194   0.0000       2.963760        80.6480 
 195   0.0000       2.969561        80.8059 
 196   0.0000       3.010675        81.9246 
 197   0.0000       3.024701        82.3063 
 198   0.0000       3.069977        83.5383 
 199   0.0000       3.178689        86.4965 
 200   0.0000       3.209462        87.3339 
 201   0.0000       3.245777        88.3221 
 202   0.0000       3.258115        88.6578 
 203   0.0000       3.304595        89.9226 
 204   0.0000       3.369520        91.6893 
 205   0.0000       3.401718        92.5655 
 206   0.0000       3.431651        93.3800 
 207   0.0000       3.439165        93.5844 
 208   0.0000       3.443997        93.7159 
 209   0.0000       3.454209        93.9938 
 210   0.0000       3.473753        94.5256 
 211   0.0000       3.500571        95.2554 
 212   0.0000       3.529507        96.0428 
 213   0.0000       3.531829        96.1060 
 214   0.0000       3.557296        96.7989 

                    ********************************
                    * MULLIKEN POPULATION ANALYSIS *
                    ********************************

-----------------------
MULLIKEN ATOMIC CHARGES
-----------------------
   0 O :   -0.472848
   1 O :   -0.443235
   2 N :   -0.598056
   3 C :    0.055038
   4 C :    0.075106
   5 C :   -0.301678
   6 C :   -0.300390
   7 C :   -0.316859
   8 C :   -0.256923
   9 C :    0.523310
  10 H :    0.077790
  11 H :    0.091843
  12 H :    0.096731
  13 H :    0.095771
  14 H :    0.120030
  15 H :    0.087924
  16 H :    0.088510
  17 H :    0.092427
  18 H :    0.096568
  19 H :    0.105643
  20 H :    0.148656
  21 H :    0.132316
  22 H :    0.232750
  23 H :    0.245574
  24 H :    0.324003
Sum of atomic charges:   -0.0000000

--------------------------------
MULLIKEN REDUCED ORBITAL CHARGES
--------------------------------
  0 O s       :     3.825907  s :     3.825907
      pz      :     1.755102  p :     4.623782
      px      :     1.244306
      py      :     1.624373
      dz2     :     0.003260  d :     0.023159
      dxz     :     0.002788
      dyz     :     0.004456
      dx2y2   :     0.004763
      dxy     :     0.007893

  1 O s       :     3.863111  s :     3.863111
      pz      :     1.412419  p :     4.552812
      px      :     1.750117
      py      :     1.390276
      dz2     :     0.005215  d :     0.027313
      dxz     :     0.001964
      dyz     :     0.008028
      dx2y2   :     0.006370
      dxy     :     0.005736

  2 N s       :     3.629698  s :     3.629698
      pz      :     1.617407  p :     3.938335
      px      :     1.185356
      py      :     1.135573
      dz2     :     0.005087  d :     0.030023
      dxz     :     0.003972
      dyz     :     0.008499
      dx2y2   :     0.004442
      dxy     :     0.008023

  3 C s       :     3.192082  s :     3.192082
      pz      :     0.899841  p :     2.705003
      px      :     0.916302
      py      :     0.888859
      dz2     :     0.010849  d :     0.047878
      dxz     :     0.006282
      dyz     :     0.011644
      dx2y2   :     0.008371
      dxy     :     0.010732

  4 C s       :     3.173526  s :     3.173526
      pz      :     0.920288  p :     2.694185
      px      :     0.926188
      py      :     0.847709
      dz2     :     0.017023  d :     0.057184
      dxz     :     0.005255
      dyz     :     0.012746
      dx2y2   :     0.009805
      dxy     :     0.012354

  5 C s       :     3.241295  s :     3.241295
      pz      :     0.996223  p :     3.028328
      px      :     1.035951
      py      :     0.996154
      dz2     :     0.009708  d :     0.032055
      dxz     :     0.001929
      dyz     :     0.006912
      dx2y2   :     0.005116
      dxy     :     0.008391

  6 C s       :     3.238034  s :     3.238034
      pz      :     0.989766  p :     3.030651
      px      :     1.018246
      py      :     1.022639
      dz2     :     0.008209  d :     0.031706
      dxz     :     0.002511
      dyz     :     0.008704
      dx2y2   :     0.005346
      dxy     :     0.006937

  7 C s       :     3.247099  s :     3.247099
      pz      :     1.030124  p :     3.037728
      px      :     1.006896
      py      :     1.000708
      dz2     :     0.006113  d :     0.032033
      dxz     :     0.001640
      dyz     :     0.010960
      dx2y2   :     0.006692
      dxy     :     0.006628

  8 C s       :     3.235116  s :     3.235116
      pz      :     1.067803  p :     2.986685
      px      :     0.908632
      py      :     1.010251
      dz2     :     0.008847  d :     0.035122
      dxz     :     0.003650
      dyz     :     0.006526
      dx2y2   :     0.009581
      dxy     :     0.006518

  9 C s       :     2.988252  s :     2.988252
      pz      :     0.766815  p :     2.365480
      px      :     0.867655
      py      :     0.731011
      dz2     :     0.013975  d :     0.122958
      dxz     :     0.016298
      dyz     :     0.020794
      dx2y2   :     0.029331
      dxy     :     0.042560

 10 H s       :     0.911241  s :     0.911241
      pz      :     0.006343  p :     0.010969
      px      :     0.002383
      py      :     0.002243

 11 H s       :     0.896606  s :     0.896606
      pz      :     0.002351  p :     0.011551
      px      :     0.003972
      py      :     0.005228

 12 H s       :     0.891840  s :     0.891840
      pz      :     0.002285  p :     0.011430
      px      :     0.006333
      py      :     0.002812

 13 H s       :     0.892802  s :     0.892802
      pz      :     0.005938  p :     0.011427
      px      :     0.002578
      py      :     0.002911

 14 H s       :     0.868387  s :     0.868387
      pz      :     0.004696  p :     0.011583
      px      :     0.002580
      py      :     0.004307

 15 H s       :     0.900559  s :     0.900559
      pz      :     0.002378  p :     0.011517
      px      :     0.003816
      py      :     0.005322

 16 H s       :     0.900050  s :     0.900050
      pz      :     0.002268  p :     0.011439
      px      :     0.006393
      py      :     0.002779

 17 H s       :     0.896170  s :     0.896170
      pz      :     0.005553  p :     0.011403
      px      :     0.002450
      py      :     0.003400

 18 H s       :     0.892005  s :     0.892005
      pz      :     0.002464  p :     0.011427
      px      :     0.006160
      py      :     0.002803

 19 H s       :     0.882819  s :     0.882819
      pz      :     0.004961  p :     0.011538
      px      :     0.002425
      py      :     0.004152

 20 H s       :     0.839570  s :     0.839570
      pz      :     0.006982  p :     0.011774
      px      :     0.002281
      py      :     0.002511

 21 H s       :     0.855662  s :     0.855662
      pz      :     0.003528  p :     0.012022
      px      :     0.002621
      py      :     0.005873

 22 H s       :     0.743415  s :     0.743415
      pz      :     0.007291  p :     0.023836
      px      :     0.008040
      py      :     0.008505

 23 H s       :     0.730404  s :     0.730404
      pz      :     0.007057  p :     0.024022
      px      :     0.011685
      py      :     0.005280

 24 H s       :     0.638367  s :     0.638367
      pz      :     0.009565  p :     0.037631
      px      :     0.018997
      py      :     0.009069


------------------------
MULLIKEN OVERLAP CHARGES
------------------------
B(  0-O ,  1-O ) :  -0.1609 B(  0-O ,  8-C ) :  -0.1766 B(  0-O ,  9-C ) :   0.5916 
B(  0-O , 24-H ) :   0.5466 B(  1-O ,  8-C ) :  -0.1816 B(  1-O ,  9-C ) :   1.2063 
B(  2-N ,  3-C ) :  -0.0987 B(  2-N ,  4-C ) :   0.6331 B(  2-N ,  8-C ) :  -0.1040 
B(  2-N , 10-H ) :  -0.0993 B(  2-N , 22-H ) :   0.6617 B(  2-N , 23-H ) :   0.6601 
B(  3-C ,  4-C ) :   0.7215 B(  3-C ,  5-C ) :   0.7551 B(  3-C ,  6-C ) :   0.7555 
B(  3-C ,  7-C ) :   0.7674 B(  3-C , 10-H ) :  -0.1149 B(  3-C , 11-H ) :  -0.0579 
B(  3-C , 12-H ) :  -0.0558 B(  3-C , 13-H ) :  -0.0614 B(  3-C , 14-H ) :  -0.0572 
B(  3-C , 15-H ) :  -0.0614 B(  3-C , 16-H ) :  -0.0614 B(  3-C , 17-H ) :  -0.0624 
B(  3-C , 18-H ) :  -0.0547 B(  3-C , 19-H ) :  -0.0535 B(  4-C ,  5-C ) :  -0.0903 
B(  4-C ,  6-C ) :  -0.0875 B(  4-C ,  7-C ) :  -0.0897 B(  4-C ,  8-C ) :   0.6633 
B(  4-C ,  9-C ) :  -0.0548 B(  4-C , 10-H ) :   0.7655 B(  4-C , 20-H ) :  -0.0540 
B(  4-C , 21-H ) :  -0.0610 B(  4-C , 22-H ) :  -0.0653 B(  4-C , 23-H ) :  -0.0625 
B(  5-C ,  6-C ) :  -0.1123 B(  5-C ,  7-C ) :  -0.1094 B(  5-C , 11-H ) :   0.7489 
B(  5-C , 12-H ) :   0.7517 B(  5-C , 13-H ) :   0.7491 B(  6-C ,  7-C ) :  -0.1123 
B(  6-C , 14-H ) :   0.7567 B(  6-C , 15-H ) :   0.7515 B(  6-C , 16-H ) :   0.7512 
B(  7-C , 17-H ) :   0.7430 B(  7-C , 18-H ) :   0.7541 B(  7-C , 19-H ) :   0.7473 
B(  8-C ,  9-C ) :   0.6350 B(  8-C , 10-H ) :  -0.1155 B(  8-C , 20-H ) :   0.7073 
B(  8-C , 21-H ) :   0.7124 B( 11-H , 12-H ) :  -0.0595 B( 11-H , 13-H ) :  -0.0656 
B( 12-H , 13-H ) :  -0.0606 B( 14-H , 15-H ) :  -0.0598 B( 14-H , 16-H ) :  -0.0609 
B( 15-H , 16-H ) :  -0.0636 B( 17-H , 18-H ) :  -0.0608 B( 17-H , 19-H ) :  -0.0665 
B( 18-H , 19-H ) :  -0.0592 B( 22-H , 23-H ) :  -0.0612 


                     *******************************
                     * LOEWDIN POPULATION ANALYSIS *
                     *******************************

----------------------
LOEWDIN ATOMIC CHARGES
----------------------
   0 O :   -0.156215
   1 O :   -0.249459
   2 N :   -0.277995
   3 C :   -0.023754
   4 C :   -0.003119
   5 C :   -0.190548
   6 C :   -0.191804
   7 C :   -0.192159
   8 C :   -0.149507
   9 C :    0.152365
  10 H :    0.050791
  11 H :    0.062832
  12 H :    0.069210
  13 H :    0.066099
  14 H :    0.076287
  15 H :    0.062713
  16 H :    0.065488
  17 H :    0.064934
  18 H :    0.069101
  19 H :    0.069172
  20 H :    0.098503
  21 H :    0.093408
  22 H :    0.121122
  23 H :    0.125989
  24 H :    0.186546

-------------------------------
LOEWDIN REDUCED ORBITAL CHARGES
-------------------------------
  0 O s       :     3.477415  s :     3.477415
      pz      :     1.727600  p :     4.630219
      px      :     1.268135
      py      :     1.634484
      dz2     :     0.006330  d :     0.048582
      dxz     :     0.006227
      dyz     :     0.006283
      dx2y2   :     0.011805
      dxy     :     0.017937

  1 O s       :     3.563672  s :     3.563672
      pz      :     1.420177  p :     4.631135
      px      :     1.742700
      py      :     1.468258
      dz2     :     0.007599  d :     0.054651
      dxz     :     0.003838
      dyz     :     0.016629
      dx2y2   :     0.014213
      dxy     :     0.012373

  2 N s       :     3.213711  s :     3.213711
      pz      :     1.637791  p :     4.007674
      px      :     1.195135
      py      :     1.174749
      dz2     :     0.008615  d :     0.056610
      dxz     :     0.005045
      dyz     :     0.015423
      dx2y2   :     0.010713
      dxy     :     0.016813

  3 C s       :     2.870309  s :     2.870309
      pz      :     1.018250  p :     3.041974
      px      :     1.009516
      py      :     1.014208
      dz2     :     0.025443  d :     0.111471
      dxz     :     0.012715
      dyz     :     0.028200
      dx2y2   :     0.018892
      dxy     :     0.026221

  4 C s       :     2.876300  s :     2.876300
      pz      :     1.019646  p :     2.999854
      px      :     1.014191
      py      :     0.966018
      dz2     :     0.037923  d :     0.126965
      dxz     :     0.010002
      dyz     :     0.028038
      dx2y2   :     0.021939
      dxy     :     0.029061

  5 C s       :     2.919106  s :     2.919106
      pz      :     1.058054  p :     3.206954
      px      :     1.087371
      py      :     1.061530
      dz2     :     0.018885  d :     0.064488
      dxz     :     0.003836
      dyz     :     0.015563
      dx2y2   :     0.010119
      dxy     :     0.016084

  6 C s       :     2.916352  s :     2.916352
      pz      :     1.051635  p :     3.211334
      px      :     1.081070
      py      :     1.078629
      dz2     :     0.017411  d :     0.064118
      dxz     :     0.005377
      dyz     :     0.017894
      dx2y2   :     0.010197
      dxy     :     0.013238

  7 C s       :     2.919844  s :     2.919844
      pz      :     1.083767  p :     3.208117
      px      :     1.064753
      py      :     1.059596
      dz2     :     0.012183  d :     0.064198
      dxz     :     0.003084
      dyz     :     0.021019
      dx2y2   :     0.012959
      dxy     :     0.014954

  8 C s       :     2.901298  s :     2.901298
      pz      :     1.089649  p :     3.170194
      px      :     1.012575
      py      :     1.067970
      dz2     :     0.018586  d :     0.078015
      dxz     :     0.008339
      dyz     :     0.012292
      dx2y2   :     0.021614
      dxy     :     0.017185

  9 C s       :     2.851939  s :     2.851939
      pz      :     0.808673  p :     2.710029
      px      :     0.966411
      py      :     0.934944
      dz2     :     0.029431  d :     0.285667
      dxz     :     0.036169
      dyz     :     0.048311
      dx2y2   :     0.069730
      dxy     :     0.102026

 10 H s       :     0.910111  s :     0.910111
      pz      :     0.024311  p :     0.039098
      px      :     0.007237
      py      :     0.007549

 11 H s       :     0.898076  s :     0.898076
      pz      :     0.007053  p :     0.039092
      px      :     0.013345
      py      :     0.018695

 12 H s       :     0.892168  s :     0.892168
      pz      :     0.006777  p :     0.038622
      px      :     0.023019
      py      :     0.008826

 13 H s       :     0.895232  s :     0.895232
      pz      :     0.021706  p :     0.038669
      px      :     0.007537
      py      :     0.009425

 14 H s       :     0.883847  s :     0.883847
      pz      :     0.017638  p :     0.039866
      px      :     0.007357
      py      :     0.014871

 15 H s       :     0.898609  s :     0.898609
      pz      :     0.007386  p :     0.038678
      px      :     0.012556
      py      :     0.018736

 16 H s       :     0.895932  s :     0.895932
      pz      :     0.007084  p :     0.038579
      px      :     0.023123
      py      :     0.008373

 17 H s       :     0.896554  s :     0.896554
      pz      :     0.019806  p :     0.038512
      px      :     0.007381
      py      :     0.011326

 18 H s       :     0.892253  s :     0.892253
      pz      :     0.006866  p :     0.038647
      px      :     0.022683
      py      :     0.009098

 19 H s       :     0.891550  s :     0.891550
      pz      :     0.017430  p :     0.039279
      px      :     0.007079
      py      :     0.014770

 20 H s       :     0.860403  s :     0.860403
      pz      :     0.026157  p :     0.041093
      px      :     0.006930
      py      :     0.008007

 21 H s       :     0.865447  s :     0.865447
      pz      :     0.011680  p :     0.041145
      px      :     0.007834
      py      :     0.021630

 22 H s       :     0.800600  s :     0.800600
      pz      :     0.024109  p :     0.078277
      px      :     0.024401
      py      :     0.029768

 23 H s       :     0.794208  s :     0.794208
      pz      :     0.022294  p :     0.079802
      px      :     0.041652
      py      :     0.015856

 24 H s       :     0.699383  s :     0.699383
      pz      :     0.028410  p :     0.114071
      px      :     0.057942
      py      :     0.027720


---------------------------------
LOEWDIN BOND ORDERS (THRESH 0.050000)
---------------------------------
B(  0-O ,  1-O ) :   0.1991 B(  0-O ,  8-C ) :   0.0674 B(  0-O ,  9-C ) :   1.3902 
B(  0-O , 24-H ) :   0.9875 B(  1-O ,  8-C ) :   0.0849 B(  1-O ,  9-C ) :   2.1859 
B(  2-N ,  4-C ) :   1.1286 B(  2-N ,  8-C ) :   0.0513 B(  2-N , 22-H ) :   0.9860 
B(  2-N , 23-H ) :   0.9778 B(  3-C ,  4-C ) :   0.9835 B(  3-C ,  5-C ) :   1.0299 
B(  3-C ,  6-C ) :   1.0321 B(  3-C ,  7-C ) :   1.0271 B(  4-C ,  8-C ) :   1.0193 
B(  4-C , 10-H ) :   0.9013 B(  5-C , 11-H ) :   0.9532 B(  5-C , 12-H ) :   0.9542 
B(  5-C , 13-H ) :   0.9557 B(  6-C , 14-H ) :   0.9533 B(  6-C , 15-H ) :   0.9558 
B(  6-C , 16-H ) :   0.9563 B(  7-C , 17-H ) :   0.9566 B(  7-C , 18-H ) :   0.9536 
B(  7-C , 19-H ) :   0.9534 B(  8-C ,  9-C ) :   1.0329 B(  8-C , 20-H ) :   0.9071 
B(  8-C , 21-H ) :   0.9051 B(  9-C , 24-H ) :   0.0563 

------------------------------------------
LOEWDIN REDUCED ORBITAL POPULATIONS PER MO
-------------------------------------------
THRESHOLD FOR PRINTING IS 0.1%%
                      0         1         2         3         4         5   
                 -19.19183 -19.13555 -14.29698 -10.31749 -10.20360 -10.18909
                   2.00000   2.00000   2.00000   2.00000   2.00000   2.00000
                  --------  --------  --------  --------  --------  --------
 0 O  s              99.9       0.0       0.0       0.0       0.0       0.0
 1 O  s               0.0      99.8       0.0       0.1       0.0       0.0
 1 O  py              0.0       0.0       0.0       0.3       0.0       0.0
 2 N  s               0.0       0.0      99.7       0.0       0.0       0.0
 3 C  px              0.0       0.0       0.0       0.0       0.1       0.0
 4 C  s               0.0       0.0       0.0       0.0      99.4       0.0
 8 C  s               0.0       0.0       0.0       0.0       0.0      99.5
 8 C  px              0.0       0.0       0.0       0.1       0.1       0.0
 9 C  s               0.0       0.0       0.0      99.0       0.0       0.0
 9 C  px              0.0       0.0       0.0       0.0       0.0       0.1

                      6         7         8         9        10        11   
                 -10.18688 -10.16536 -10.16472 -10.15756  -1.10319  -1.01000
                   2.00000   2.00000   2.00000   2.00000   2.00000   2.00000
                  --------  --------  --------  --------  --------  --------
 0 O  s               0.0       0.0       0.0       0.0      40.4      19.8
 0 O  pz              0.0       0.0       0.0       0.0       0.4       0.1
 0 O  px              0.0       0.0       0.0       0.0       0.2       0.2
 0 O  py              0.0       0.0       0.0       0.0       2.3       0.2
 1 O  s               0.0       0.0       0.0       0.0      14.8      40.6
 1 O  pz              0.0       0.0       0.0       0.0       0.5       0.6
 1 O  px              0.0       0.0       0.0       0.0       0.0       0.4
 1 O  py              0.0       0.0       0.0       0.0       2.3       2.2
 3 C  s              99.4       0.0       0.0       0.0       0.0       0.0
 3 C  pz              0.0       0.1       0.0       0.1       0.0       0.0
 4 C  px              0.1       0.0       0.0       0.0       0.1       0.1
 5 C  s               0.0      99.5       0.1       0.0       0.0       0.0
 6 C  s               0.0       0.0       0.0      99.6       0.0       0.0
 6 C  pz              0.1       0.0       0.0       0.0       0.0       0.0
 7 C  s               0.0       0.1      99.5       0.0       0.0       0.0
 8 C  s               0.0       0.0       0.0       0.0       0.9       0.2
 8 C  px              0.0       0.0       0.0       0.0       1.6       0.1
 8 C  py              0.0       0.0       0.0       0.0       0.1       0.3
 9 C  s               0.0       0.0       0.0       0.0      19.6       3.6
 9 C  pz              0.0       0.0       0.0       0.0       0.0       4.1
 9 C  px              0.0       0.0       0.0       0.0       5.1       0.5
 9 C  py              0.0       0.0       0.0       0.0       0.1      20.2
 9 C  dz2             0.0       0.0       0.0       0.0       0.3       0.0
 9 C  dxz             0.0       0.0       0.0       0.0       0.0       0.2
 9 C  dyz             0.0       0.0       0.0       0.0       0.5       0.3
 9 C  dx2y2           0.0       0.0       0.0       0.0       0.1       0.5
 9 C  dxy             0.0       0.0       0.0       0.0       0.2       1.1
20 H  s               0.0       0.0       0.0       0.0       0.1       0.0
21 H  s               0.0       0.0       0.0       0.0       0.1       0.0
24 H  s               0.0       0.0       0.0       0.0       8.2       3.5
24 H  px              0.0       0.0       0.0       0.0       1.3       0.7
24 H  py              0.0       0.0       0.0       0.0       0.1       0.1

                     12        13        14        15        16        17   
                  -0.88154  -0.80005  -0.76095  -0.67924  -0.67661  -0.64993
                   2.00000   2.00000   2.00000   2.00000   2.00000   2.00000
                  --------  --------  --------  --------  --------  --------
 0 O  s               0.0       0.0       0.7       0.1       0.0       0.6
 0 O  px              0.0       0.0       4.3       0.9       0.1      15.5
 0 O  py              0.0       0.0       0.0       0.0       0.0       0.7
 0 O  dxy             0.0       0.0       0.1       0.0       0.0       0.3
 1 O  s               0.4       0.0       1.5       0.1       0.0       0.7
 1 O  pz              0.0       0.0       0.1       0.0       0.0       0.2
 1 O  px              0.0       0.0       0.4       0.0       0.0       0.0
 1 O  py              0.0       0.0       0.2       0.0       0.0       0.4
 2 N  s              33.5      10.5       3.5       0.1       0.0       3.1
 2 N  pz              2.1       0.2       0.0       0.0       0.0       0.6
 2 N  px              0.0       0.2       0.1       0.1       0.0       0.2
 2 N  py              0.3       0.5       0.9       0.0       0.0       4.7
 2 N  dyz             0.1       0.0       0.0       0.0       0.0       0.1
 3 C  s               5.0      21.0       1.5       0.0       0.0       0.5
 3 C  pz              0.0       0.1       0.0       2.7      11.4       0.0
 3 C  px              1.1       0.5       1.5       2.0       0.2       5.9
 3 C  py              0.4       0.3       0.1       8.4       2.5       1.9
 3 C  dz2             0.0       0.0       0.0       0.0       0.1       0.1
 3 C  dyz             0.0       0.0       0.0       0.2       0.1       0.0
 3 C  dxy             0.0       0.0       0.0       0.1       0.1       0.0
 4 C  s              17.8       0.7       1.8       0.2       0.0      13.8
 4 C  pz              1.9       0.7       0.0       0.1       0.7       0.7
 4 C  px              0.0       2.7       4.1       0.0       0.0       0.1
 4 C  py              1.7       4.6       4.2       0.1       0.1       1.1
 4 C  dyz             0.2       0.1       0.1       0.0       0.0       0.0
 4 C  dx2y2           0.1       0.1       0.0       0.0       0.0       0.0
 4 C  dxy             0.0       0.0       0.2       0.0       0.0       0.0
 5 C  s               0.8      10.1       0.7      22.0       4.4       4.3
 5 C  pz              0.3       1.3       0.1       0.1       0.6       0.1
 5 C  px              0.1       0.0       0.1       0.1       0.0       0.5
 5 C  py              0.3       1.0       0.1       0.5       0.1       0.4
 6 C  s               0.9       8.1       0.8       0.5      29.7       1.6
 6 C  pz              0.4       2.0       0.1       0.1       0.3       0.0
 6 C  px              0.1       0.0       0.1       0.1       0.0       0.3
 6 C  py              0.2       0.3       0.1       0.4       0.1       0.1
 7 C  s               1.1       8.2       2.6      19.9       9.0       0.3
 7 C  pz              0.0       0.0       0.0       0.1       0.6       0.0
 7 C  px              0.5       0.7       0.1       0.1       0.0       0.4
 7 C  py              0.2       1.6       0.1       0.4       0.2       0.0
 8 C  s               4.0       0.9      28.6       0.2       0.0       0.0
 8 C  pz              0.0       0.0       0.1       0.0       0.1       0.2
 8 C  px              0.8       0.2       0.7       0.6       0.1       8.8
 8 C  py              1.2       0.0       0.0       0.0       0.0       1.2
 8 C  dxy             0.0       0.0       0.0       0.0       0.0       0.1
 9 C  s               0.1       0.1       5.3       0.5       0.1       4.8
 9 C  pz              0.1       0.0       1.1       0.1       0.0       0.9
 9 C  px              1.0       0.1       9.8       0.2       0.0       0.2
 9 C  py              0.2       0.0       2.6       0.2       0.0       2.7
 9 C  dx2y2           0.0       0.0       0.1       0.0       0.0       0.0
10 H  s               2.7       0.2       0.4       0.1       0.2       4.2
10 H  pz              0.1       0.0       0.0       0.0       0.0       0.2
11 H  s               0.1       1.9       0.0       7.0       0.9       1.3
11 H  px              0.0       0.0       0.0       0.1       0.0       0.0
11 H  py              0.0       0.1       0.0       0.3       0.0       0.0
12 H  s               0.1       2.0       0.2       5.6       1.2       2.1
12 H  px              0.0       0.1       0.0       0.3       0.1       0.1
13 H  s               0.1       1.9       0.1       6.0       1.9       1.0
13 H  pz              0.0       0.1       0.0       0.3       0.1       0.0
14 H  s               0.2       1.3       0.2       0.3       8.1       0.4
14 H  pz              0.0       0.0       0.0       0.0       0.3       0.0
14 H  py              0.0       0.0       0.0       0.0       0.2       0.0
15 H  s               0.2       1.5       0.1       0.0       8.7       0.5
15 H  px              0.0       0.0       0.0       0.0       0.2       0.0
15 H  py              0.0       0.1       0.0       0.0       0.3       0.0
[...]
 10 H      0.9222     1.0000     0.0778     0.9555     0.9555    -0.0000
 11 H      0.9082     1.0000     0.0918     0.9605     0.9605     0.0000
 12 H      0.9033     1.0000     0.0967     0.9606     0.9606    -0.0000
 13 H      0.9042     1.0000     0.0958     0.9604     0.9604     0.0000
 14 H      0.8800     1.0000     0.1200     0.9647     0.9647     0.0000
 15 H      0.9121     1.0000     0.0879     0.9611     0.9611    -0.0000
 16 H      0.9115     1.0000     0.0885     0.9596     0.9596     0.0000
 17 H      0.9076     1.0000     0.0924     0.9587     0.9587    -0.0000
 18 H      0.9034     1.0000     0.0966     0.9613     0.9613    -0.0000
 19 H      0.8944     1.0000     0.1056     0.9589     0.9589    -0.0000
 20 H      0.8513     1.0000     0.1487     0.9569     0.9569     0.0000
 21 H      0.8677     1.0000     0.1323     0.9591     0.9591     0.0000
 22 H      0.7673     1.0000     0.2327     0.9257     0.9257    -0.0000
 23 H      0.7544     1.0000     0.2456     0.9350     0.9350    -0.0000
 24 H      0.6760     1.0000     0.3240     0.9127     0.9127    -0.0000

  Mayer bond orders larger than 0.100000
B(  0-O ,  9-C ) :   1.0892 B(  0-O , 24-H ) :   0.8521 B(  1-O ,  9-C ) :   1.8791 
B(  2-N ,  4-C ) :   0.9966 B(  2-N , 22-H ) :   0.9059 B(  2-N , 23-H ) :   0.8913 
B(  3-C ,  4-C ) :   0.9604 B(  3-C ,  5-C ) :   0.9935 B(  3-C ,  6-C ) :   0.9967 
B(  3-C ,  7-C ) :   0.9941 B(  4-C ,  8-C ) :   0.9679 B(  4-C , 10-H ) :   0.9294 
B(  5-C , 11-H ) :   0.9559 B(  5-C , 12-H ) :   0.9590 B(  5-C , 13-H ) :   0.9583 
B(  6-C , 14-H ) :   0.9529 B(  6-C , 15-H ) :   0.9593 B(  6-C , 16-H ) :   0.9598 
B(  7-C , 17-H ) :   0.9578 B(  7-C , 18-H ) :   0.9590 B(  7-C , 19-H ) :   0.9550 
B(  8-C ,  9-C ) :   0.9601 B(  8-C , 20-H ) :   0.9232 B(  8-C , 21-H ) :   0.9265 


-------
TIMINGS
-------

Total SCF time: 0 days 0 hours 0 min 46 sec 

Total time                  ....      46.174 sec
Sum of individual times     ....      44.187 sec  ( 95.7%)

SCF preparation             ....       0.352 sec  (  0.8%)
Fock matrix formation       ....      43.358 sec  ( 93.9%)
  Startup                   ....       0.005 sec  (  0.0% of F)
  Split-RI-J                ....       3.833 sec  (  8.8% of F)
  Chain of spheres X        ....      34.098 sec  ( 78.6% of F)
  XC integration            ....       7.300 sec  ( 16.8% of F)
    XC Preparation          ....       0.000 sec  (  0.0% of XC)
    Basis function eval.    ....       2.788 sec  ( 38.2% of XC)
    Density eval.           ....       1.554 sec  ( 21.3% of XC)
    XC-Functional eval.     ....       0.389 sec  (  5.3% of XC)
    XC-Potential eval.      ....       2.101 sec  ( 28.8% of XC)
Diagonalization             ....       0.000 sec  (  0.0%)
Density matrix formation    ....       0.030 sec  (  0.1%)
Total Energy calculation    ....       0.015 sec  (  0.0%)
Population analysis         ....       0.206 sec  (  0.4%)
Orbital Transformation      ....       0.025 sec  (  0.1%)
Orbital Orthonormalization  ....       0.000 sec  (  0.0%)
DIIS solution               ....       0.119 sec  (  0.3%)
  MO trafo                  ....       0.000 sec  (  0.0 % of DIIS)
  Orb grad                  ....       0.000 sec  (  0.0 % of DIIS)
  Energy W gradient         ....       0.000 sec  (  0.0 % of DIIS)
  DIIS error                ....       0.025 sec  ( 21.0 % of DIIS)
  DIIS work                 ....       0.077 sec  ( 64.6 % of DIIS)
  Form Q                    ....       0.000 sec  (  0.0 % of DIIS)
  Form QpQm                 ....       0.000 sec  (  0.0 % of DIIS)
  Exp/Cayley                ....       0.000 sec  (  0.0 % of DIIS)
  Orb update                ....       0.000 sec  (  0.0 % of DIIS)
  Wake-sleep                ....       0.004 sec  (  3.4 % of DIIS)
SOSCF solution              ....       0.083 sec  (  0.2%)
  MO trafo                  ....       0.027 sec  ( 32.8 % of SOSCF)
  Orb grad                  ....       0.003 sec  (  3.1 % of SOSCF)
  Rot update                ....       0.009 sec  ( 11.4 % of SOSCF)
  Step                      ....       0.039 sec  ( 47.7 % of SOSCF)
Finished LeanSCF after  46.2 sec

Maximum memory used throughout the entire LEANSCF-calculation: 25.5 MB


-------------------------------------------------------------------------------
                          DFT DISPERSION CORRECTION                            
                                                                               
                              DFTD3 V3.1  Rev 1                                
                          USING Becke-Johnson damping                          
-------------------------------------------------------------------------------
The B3LYP functional is recognized
Active option DFTDOPT                   ...         4   

molecular C6(AA) [au] = 4564.689242 


            DFT-D V3
 parameters
 s6 scaling factor         :     1.0000 
 a1 scaling factor         :     0.3981 
 s8 scaling factor         :     1.9889 
 a2 scaling factor         :     4.4211 
 ad hoc parameters k1-k3   :    16.0000     1.3333    -4.0000 

 Edisp/kcal,au: -26.013628631481  -0.041455351563 
 E6   /kcal   : -12.840981391 
 E8   /kcal   : -13.172647241 
 % E8         :  50.637484787 

-------------------------   ----------------
Dispersion correction           -0.041455352
-------------------------   ----------------


-------------------------   --------------------
FINAL SINGLE POINT ENERGY      -480.758664312302
-------------------------   --------------------



           ************************************************************
           *        Program running with 2 parallel MPI-processes     *
           *              working on a common directory               *
           ************************************************************
------------------------------------------------------------------------------
                            ORCA SCF RESPONSE CALCULATION
------------------------------------------------------------------------------

GBWName                                 ... /kaggle/working/Bta-2/Bta_InterFrag.gbw
Number of atoms                         ...     25
Number of basis functions               ...    215
Max core memory                         ...   3000 MB

Electric field perturbation             ... YES
Quadrupolar field perturbation          ...  NO
Magnetic field perturbation (no GIAO)   ...  NO
Magnetic field perturbation (with GIAO) ...  NO
Linear momentum (velocity) perturbation ...  NO
Spin-orbit coupling perturbation        ...  NO
Choice of electric origin               ... Center of mass
Position of electric origin             ...     0.055301     0.011175     0.009941
Choice of magnetic origin               ... GIAO
Position of magnetic origin             ...     0.000000     0.000000     0.000000
Nuclear geometric perturbations         ...  NO (  75 perturbations)
Nucleus-orbit perturbations             ...  NO (   0 perturbations)
Spin-dipole/Fermi contact perturbations ...  NO (   0 perturbations)

Total number of real perturbations      ...      3
Total number of imaginary perturbations ...      0
Total number of triplet perturbations   ...      0
Total number of SOC perturbations       ...      0

Using XC Grid                  ... (/kaggle/working/Bta-2/Bta_InterFrag.grid_cpscf.tmp) 
Recalculating density on grid  ... (/kaggle/working/Bta-2/Bta_InterFrag.grho_cpscf0.tmp) done
Calculating the xc-kernel      ... (/kaggle/working/Bta-2/Bta_InterFrag.fxc_cpscf0.tmp) done

                                **********************
                                * REAL PERTURBATIONS *
                                **********************



-------------------
SHARK CP-SCF DRIVER
-------------------

Dimension of the orbital basis          ...    215
Dimension of the CPSCF-problem          ...   7000
Number of operators                     ...      1
Max. number of iterations               ...    128
Convergence Tolerance                   ... 1.0e-04
Number of perturbations                 ...      3
Perturbation type                       ... REAL

----------------------------
POPLE LINEAR EQUATION SOLVER
----------------------------

  ITERATION   0:   ||err||_max =   1.1049e+01 (   2.0 sec   0/  3 done)
  ITERATION   1:   ||err||_max =   1.0004e+00 (   1.9 sec   0/  3 done)
  ITERATION   2:   ||err||_max =   2.6991e-01 (   1.9 sec   0/  3 done)
  ITERATION   3:   ||err||_max =   7.0937e-02 (   1.9 sec   0/  3 done)
  ITERATION   4:   ||err||_max =   1.9868e-02 (   1.9 sec   0/  3 done)
  ITERATION   5:   ||err||_max =   6.0646e-03 (   1.9 sec   0/  3 done)
  ITERATION   6:   ||err||_max =   1.4405e-03 (   1.9 sec   0/  3 done)
  ITERATION   7:   ||err||_max =   4.1728e-04 (   1.9 sec   0/  3 done)
  ITERATION   8:   ||err||_max =   1.0732e-04 (   1.9 sec   2/  3 done)
  ITERATION   9:   ||err||_max =   3.0012e-05 (   1.5 sec   3/  3 done)

CP-SCF equations solved in  18.6 sec
Response densities calculated in   0.0 sec

Maximum memory used throughout the entire SCFRESP-calculation: 27.9 MB


           ************************************************************
           *        Program running with 2 parallel MPI-processes     *
           *              working on a common directory               *
           ************************************************************

------------------------------------------------------------------------------
                              ORCA PROPERTY CALCULATIONS
------------------------------------------------------------------------------

GBWName                                 ... /kaggle/working/Bta-2/Bta_InterFrag.gbw
Number of atoms                         ...     25
Number of basis functions               ...    215
Max core memory                         ...   3000 MB

Electric properties:
Dipole moment                           ... YES
Quadrupole moment                       ...  NO
Static polarizability (Dipole/Dipole)   ... YES
Static polarizability (Dipole/Quad.)    ...  NO
Static polarizability (Quad./Quad.)     ...  NO
Static polarizability (Velocity)        ...  NO
Static hyperpolarizability              ...  NO

Atomic electric properties:
Dipole moment                           ...  NO
Quadrupole moment                       ...  NO
Static polarizability                   ...  NO

Choice of electric origin               ... Center of mass
Position of electric origin             ...     0.055301     0.011175     0.009941

General magnetic properties:
Magnetizability                         ...  NO

EPR properties:
g-Tensor (aka g-matrix)                 ...  NO
Zero-Field splitting spin-orbit         ...  NO
Zero-field splitting spin-spin          ...  NO
Hyperfine couplings                     ...  NO (   0 nuclei)
Quadrupole couplings                    ...  NO (   0 nuclei)
Contact density                         ...  NO (   0 nuclei)

NMR properties:
Chemical shifts                         ...  NO (   0 nuclei)
Spin-rotation constants                 ...  NO (   0 nuclei)
Spin-spin couplings                     ...  NO (   0 nuclei,    0 pairs)

Choice of magnetic origin               ... GIAO
Position of magnetic origin             ...     0.000000     0.000000     0.000000

Properties with geometric perturbations:
SCF Hessian                             ...  NO
IR spectrum                             ...  NO
VCD spectrum                            ...  NO
X-ray spectroscopy properties:
SCF XES/XAS/RIXS spectra                ...  NO

SCF SOC stabilization energy            ...  NO
Diagonal Born-Oppenheimer correction    ...  NO

-------------
DIPOLE MOMENT
-------------

Method             : SCF
Type of density    : Electron Density
Multiplicity       :   1
Irrep              :   0
Energy             :  -480.7172089607388443 Eh
Basis              : AO
                                X                 Y                 Z
Electronic contribution:     15.173733577       1.054496734      -0.475370963
Nuclear contribution   :    -15.147494294      -1.392085245       0.284720480
                        -----------------------------------------
Total Dipole Moment    :      0.026239283      -0.337588511      -0.190650483
                        -----------------------------------------
Magnitude (a.u.)       :      0.388589899
Magnitude (Debye)      :      0.987717027



--------------------
Rotational spectrum 
--------------------
 
Rotational constants in cm-1:             0.077512             0.024379             0.022327 
Rotational constants in MHz :          2323.758380           730.856299           669.336576 

Dipole components along the rotational axes: 
x,y,z [a.u.] :     0.043145    -0.349299     0.164715 
x,y,z [Debye]:     0.109666    -0.887846     0.418673 

 

Dipole moment calculation done in   0.0 sec 


---------------------------------------------------
STATIC POLARIZABILITY TENSOR (Dipole/Dipole)
---------------------------------------------------

Method             : SCF
Type of density    : Electron Density
Type of derivative : Electric Field (Direction=X)
Multiplicity       :   1
Irrep              :   0
Basis              : AO

The raw cartesian tensor (atomic units):
     100.372224683        -1.153100468         0.056636150  
      -1.153100468        84.582204570        -1.822309724  
       0.056636150        -1.822309724        73.645987254  
diagonalized tensor: 
      73.349711437        84.793381324       100.457323747  

Orientation: 
       0.004785238         0.073438221        -0.997288288  
       0.160618535         0.984294579         0.073252079  
       0.987004958        -0.160533512        -0.007085456  

Isotropic polarizability :  86.20014


Polarizability tensor calculation done in   0.0 sec 

Maximum memory used throughout the entire PROP-calculation: 13.1 MB

--------------------------------
SUGGESTED CITATIONS FOR THIS RUN
--------------------------------

Below you find a list of papers that are relevant to this ORCA run
We neither can nor want to force you to cite these papers, but we appreciate if you do
You receive ORCA, which is the product of decades of hard work by many enthusiastic individuals, for free
The only thing we kindly ask in return is that you cite our papers,
We deeply appreciate it, if you show your appreciation for ORCA by not just citing the generic ORCA reference.

Please note that relegating all ORCA citations to the supporting information does *not* help us.
SI sections are not indexed - citations you put there will not count into any citation statistics
But we need these citations in order to attract the funding resources that allow us to do what we are doing

Therefore, if you are a happy ORCA user, please consider citing a few of the papers listed below in the main body of your paper

In addition to the list printed below, the program has created the file /kaggle/working/Bta-2/Bta_InterFrag.bibtex that contains the list in bibtex format
You can import this file easily into all common literature databanks and citation aid programs

It goes without saying that in many instances, there are alternative algorithms to achieve similar
results as the ones you have gotten from ORCA. It is, of course, also the case that in some instances
ORCA just re-implements algorithms worked out by others. We are fully aware of that and we are also
fully appreciative of our colleagues work. Hence this citation list should not be read as indicating
that the listed papers, which are focused on our own work, are the only ones worth citing. It simply
meant to make it easier for users to cite ORCA specific papers. It is not a substitute for doing your
own literature research and citing the relevant literature in a scientifically appropriate manner.

List of essential papers. We consider these as the minimum necessary citations

  1. Neese, F.
     Software update: the ORCA program system, version 6.0
     WIRES Comput. Molec. Sci. 2025 15(1), e70019
     doi.org/10.1002/wcms.70019

List of papers to cite with high priority. The work reported in these papers was absolutely
necessary for this run to complete.
Our perspective: the developers of density functionals and basis sets usually get cited in chemistry papers
Good! But without the algorithms to do something with them, the functionals or basis sets would not do anything.
Hence, in our opinion, the algorithm design and method developments papers are equally worthy of getting cited

  1. Neese, F.
     An improvement of the resolution of the identity approximation for the formation of the Coulomb matrix
     J. Comp. Chem. 2003 24(14), 1740-1747
     doi.org/10.1002/jcc.10318
  2. Neese, F.; Wennmohs, F.; Hansen, A.; Becker, U.
     Efficient, approximate and parallel Hartree-Fock and hybrid DFT calculations. A 'chain-of-spheres' algorithm for the Hartree-Fock exchange
     Chem. Phys. 2009 356(1-3), 98-109
     doi.org/10.1016/j.chemphys.2008.10.036
  3. Grimme, S.; Antony, J.; Ehrlich, S.; Krieg, H.
     A consistent and accurate ab initio parametrization of density functional dispersion correction (DFT-D) for the 94 elements H-Pu
     J. Chem. Phys. 2010 132 , 154104
     doi.org/10.1063/1.3382344
  4. Grimme, S.; Ehrlich, S.; Goerigk, L.
     Effect of the damping function in dispersion corrected density functional theory
     J. Comput. Chem. 2011 32(7), 1456-1465
     doi.org/10.1002/jcc.21759
  5. Helmich-Paris, B.; de Souza, B.; Neese, F.; Izsák, R.
     An improved chain of spheres for exchange algorithm
     J. Chem. Phys. 2021 155(10), 104109
     doi.org/10.1063/5.0058766
  6. Neese, F.
     The SHARK Integral Generation and Digestion System
     J. Comp. Chem. 2022 44(3), 381
     doi.org/10.1002/jcc.26942

List of suggested additional citations. These are papers that are important in the 'surrounding' of 
of this run, or papers that preceded the highly important papers. If you like your results we are grateful for a citation.

  1. Izsak, R.; Neese, F.
     An overlap fitted chain of spheres exchange method
     J. Chem. Phys. 2011 135 , 144105
     doi.org/10.1063/1.3646921
  2. Izsak, R.; Hansen, A.; Neese, F.
     The resolution of identity and chain of spheres approximations for the LPNO-CCSD singles Fock term
     Molec. Phys. 2012 110 , 2413-2417
     doi.org/10.1080/00268976.2012.687466
  3. Neese, F.
     The ORCA program system
     WIRES Comput. Molec. Sci. 2012 2(1), 73-78
     doi.org/10.1002/wcms.81
  4. Izsak, R.; Neese, F.; Klopper, W.
     Robust fitting techniques in the chain of spheres approximation to the Fock exchange: The role of the complementary space
     J. Chem. Phys. 2013 139 , 
     doi.org/10.1063/1.4819264
  5. Neese, F.
     Software update: the ORCA program system, version 4.0
     WIRES Comput. Molec. Sci. 2018 8(1), 1-6
     doi.org/10.1002/wcms.1327
  6. Neese, F.; Wennmohs, F.; Becker, U.; Riplinger, C.
     The ORCA quantum chemistry program package
     J. Chem. Phys. 2020 152(22), 224108
     doi.org/10.1063/5.0004608
  7. Neese, F.
     Software update: The ORCA program system—Version 5.0
     WIRES Comput. Molec. Sci. 2022 12(1), e1606
     doi.org/10.1002/wcms.1606

List of optional additional citations

  1. Neese, F.
     Approximate second-order SCF convergence for spin unrestricted wavefunctions
     Chem. Phys. Lett. 2000 325(1-3), 93-98
     doi.org/10.1016/s0009-2614(00)00662-x

Timings for individual modules:

Sum of individual times          ...       69.476 sec (=   1.158 min)
Startup calculation              ...        2.487 sec (=   0.041 min)   3.6 %
SCF iterations                   ...       47.371 sec (=   0.790 min)  68.2 %
SCF Response                     ...       19.214 sec (=   0.320 min)  27.7 %
Property calculations            ...        0.405 sec (=   0.007 min)   0.6 %
                             ****ORCA TERMINATED NORMALLY****
TOTAL RUN TIME: 0 days 0 hours 1 minutes 9 seconds 945 msec
