
                                 *****************
                                 * O   R   C   A *
                                 *****************

                                            #,                                       
                                            ###                                      
                                            ####                                     
                                            #####                                    
                                            ######                                   
                                           ########,                                 
                                     ,,################,,,,,                         
                               ,,#################################,,                 
                          ,,##########################################,,             
                       ,#########################################, ''#####,          
                    ,#############################################,,   '####,        
                  ,##################################################,,,,####,       
                ,###########''''           ''''###############################       
              ,#####''   ,,,,##########,,,,          '''####'''          '####       
            ,##' ,,,,###########################,,,                        '##       
           ' ,,###''''                  '''############,,,                           
         ,,##''                                '''############,,,,        ,,,,,,###''
      ,#''                                            '''#######################'''  
     '                                                          ''''####''''         
             ,#######,   #######,   ,#######,      ##                                
            ,#'     '#,  ##    ##  ,#'     '#,    #''#        ,####,    ,#,          
            ##       ##  ##   ,#'  ##            #'  '#       #'       ,# #          
            ##       ##  #######   ##           ,######,      #####,      #          
            '#,     ,#'  ##    ##  '#,     ,#' ,#      #,     #,   #      #          
             '#######'   ##     ##  '#######'  #'      '#     '####' #    #          



                #########################################################
                #                        -***-                          #
                #          Department of theory and spectroscopy        #
                #                                                       #
                #                      Frank Neese                      #
                #                                                       #
                #     Directorship, Architecture, Infrastructure        #
                #                    SHARK, DRIVERS                     #
                #        Core code/Algorithms in most modules           #
                #                                                       #
                #        Max Planck Institute fuer Kohlenforschung      #
                #                Kaiser Wilhelm Platz 1                 #
                #                 D-45470 Muelheim/Ruhr                 #
                #                      Germany                          #
                #                                                       #
                #                  All rights reserved                  #
                #                        -***-                          #
                #########################################################


                         Program Version 6.1.1  -  RELEASE   -
                                (GIT: $487d211c$)
                          ($2025-11-21 10:33:24 +0100$)
                                                                         
                                  - NO-DMRG VERSION -                    
                                                                         


 With contributions from (in alphabetic order):
[Max-Planck-Institut fuer Kohlenforschung]                               
  Daniel Aravena         : Magnetic Suceptibility                        
  Michael Atanasov       : Ab Initio Ligand Field Theory (pilot matlab implementation)
  Alexander A. Auer      : GIAO ZORA, VPT2 properties, NMR spectrum      
  Ute Becker             : All parallelization in ORCA, NUMFREQ, NUMCALC 
  Giovanni Bistoni       : ED, misc. LED, open-shell LED, HFLD           
  Dmytro Bykov           : pre 5.0 version of the SCF Hessian            
  Marcos Casanova-Páez   : Triplet and SCS-CIS(D). UHF-(DLPNO)-IP/EA/STEOM-CCSD. UHF-CVS-IP/STEOM-CCSD   
  Vijay G. Chilkuri      : MRCI spin determinant printing, contributions to CSF-ICE 
  Pauline Colinet        : FMM embedding                                 
  Dipayan Datta          : RHF DLPNO-CCSD density                        
  Achintya Kumar Dutta   : EOM-CC, STEOM-CC                              
  Nicolas Foglia         : Exact transition moments, OPA infrastructure, MCD improvements    
  Dmitry Ganyushin       : Spin-Orbit,Spin-Spin,Magnetic field MRCI      
  Miquel Garcia-Rates    : C-PCM and meta-GGA Hessian, CCSD/C-PCM, Gaussian charge scheme 
  Tiago L. C. Gouveia    : GS-ROHF, GS-ROCIS                             
  Yang Guo               : DLPNO-NEVPT2, F12-NEVPT2, CIM, IAO-localization        
  Andreas Hansen         : Spin unrestricted coupled pair/coupled cluster methods 
  Ingolf Harden          : AUTO-CI MPn and infrastructure                
  Benjamin Helmich-Paris : MC-RPA, TRAH-(SCF,CASSCF), AVAS, COSX integrals, SCF dyn. polar., MC-PDFT, srDFT 
  Lee Huntington         : MR-EOM, pCC                                   
  Robert Izsak           : Overlap fitted RIJCOSX, COSX-SCS-MP3, EOM     
  Riya Kayal             : Wick's Theorem for AUTO-CI, AUTO-CI UHF-CCSDT 
  Emily Kempfer          : AUTO-CI RHF CISDT and CCSDT, approximate NEVPT4
  Christian Kollmar      : KDIIS, OOCD, Brueckner-CCSD(T), CCSD density, CASPT2, CASPT2-K, improved NEVPT2 
  Axel Koslowski         : Symmetry handling                             
  Simone Kossmann        : meta-GGA functionals, TD-DFT gradient, OOMP2, (MP2 Hessian; deprecated post 5.0) 
  Lucas Lang             : DCDCAS, Hyperfine gauge corrections, ICE-SOC+SSC
  Marvin Lechner         : AUTO-CI (C++ implementation), FIC-MRCC        
  Spencer Leger          : CASSCF response                               
  Dagmar Lenk            : GEPOL surface, SMD, ORCA-2-JSON               
  Dimitrios Liakos       : Extrapolation schemes; Compound Job, Property file
  Dimitrios Manganas     : Further ROCIS development; embedding schemes. LFT, Crystal Embedding 
  Dimitrios Pantazis     : SARC Basis sets                               
  Anastasios Papadopoulos: AUTO-CI, single reference methods and gradients 
  Taras Petrenko         : pre 6.0 DFT Hessian and TD-DFT gradient,  ECA, NRVS 
  Petra Pikulova         : Analytic Raman intensities                    
  Peter Pinski           : DLPNO-MP2, DLPNO-MP2 Gradient                 
  Shashank Vittal Rao    : ES-AILFT, MagRelax                            
  Christoph Reimann      : Effective Core Potentials                     
  Marius Retegan         : Local ZFS, SOC                                
  Christoph Riplinger    : Optimizer, TS searches, QM/MM, DLPNO-CCSD(T), (RO)-DLPNO pert. Triples 
  Michael Roemelt        : Original ROCIS implementation, recursive CI coupling coefficients
  Masaaki Saitow         : Open-shell DLPNO-CCSD energy and density      
  Barbara Sandhoefer     : DKH picture change effects                    
  Yorick L. A. Schmerwitz: GMF and freeze-and-release deltaSCF, NEB S-IDPP initial path                    
  Kantharuban Sivalingam : CASSCF convergence/infrastructure, NEVPT2, NEVPT3, NEVPT4(SD), FIC-MRCI and CEPA variants
  Bernardo de Souza      : ESD, SOC TD-DFT                               
  Georgi L. Stoychev     : AutoAux, RI-MP2 NMR, DLPNO-MP2 response, X2C  
  Van Anh Tran           : RI-MP2 g-tensors                              
  Willem Van den Heuvel  : Paramagnetic NMR                              
  Zikuan Wang            : NOTCH, Electric field optimization            
  Frank Wennmohs         : Technical directorship and infrastructure     
  Hang Xu                : AUTO-CI-Response properties                   
                                                                         
[FACCTs GmbH]                                                            
  Markus Bursch, Nicolas Foglia, Miquel Garcia-Rates, Ingolf Harden, Hagen Neugebauer, Anastasios Papadopoulos, 
  Christoph Riplinger, Bernardo de Souza, Georgi L. Stoychev                                                    
                                                                 
  APM, various basis sets, CI-OPT, improved COSX, DLPNO-Multilevel,           
  DOCKER, DRACO, updates on ESD, Fragmentator, GOAT, IRC, LR-CPCM, L-BFGS, MBIS, meta-GGA TD-DFT gradient, ML-optimized integration grids, 
  MM, NACMEs, nearIR, NEB, NEB-TS, NL-DFT gradient (VV10), 2- and 3-layer-ONIOM, interface openCOSMO-RS, QMMM,   
  Crystal-QMMM, RESP, rigid body optimization, SF, symmetry and pop. for TD-DFT, various functionals, SOLVATOR                                   
                                                                         
[Other institutions]                                                     
  V. Asgeirsson          : NEB                                           
  Christoph Bannwarth    : sTDA-DFT, sTD-DFT, PBEh-3c, B97-3c, D3        
  Giovanni Bistoni       : ETS/NOCV, ADLD/ADEX, COVALED                  
  Martin Brehm           : Molecular dynamics                            
  Ronald Cardenas        : ETS/NOCV                                      
  Martina Colucci        : COVALED                                       
  Sebastian Ehlert       : rSCAN, r2SCAN, r2SCAN-3c, D4, dhf basis sets  
  Marvin Friede          : D4 for Fr, Ra, Ac-Lr                          
  Lars Goerigk           : TD-DFT with DH, B97 family of functionals     
  Stefan Grimme          : VdW corrections, initial TS optimization, DFT functionals, gCP, sTDA/sTD-DF 
  Waldemar Hujo          : DFT-NL                                        
  H. Jonsson             : NEB                                           
  Holger Kruse           : gCP                                           
  Marcel Mueller         : wB97X-3c, vDZP basis set                      
  Hagen Neugebauer       : wr2SCAN, Native XTB                           
  Gianluca Regni         : ADLD/ADEX                                     
  Tobias Risthaus        : pre 6.0 range-separated hybrid DFT and stability analysis
  Lukas Wittmann         : regularized MP2, r2SCAN double-hybrids, wr2SCAN        
                                                                         
We gratefully acknowledge several colleagues who have allowed us to      
interface, adapt or use parts of their codes:                            
  Ed Valeev, F. Pavosevic, A. Kumar             : LibInt (2-el integral package), F12 methods 
  Garnet Chan, S. Sharma, J. Yang, R. Olivares  : DMRG                   
  Ulf Ekstrom                                   : XCFun DFT Library      
  Mihaly Kallay                                 : mrcc  (arbitrary order and MRCC methods)
  Frank Weinhold                                : gennbo (NPA and NBO analysis)           
  Simon Mueller                                 : openCOSMO-RS                            
  Christopher J. Cramer and Donald G. Truhlar   : smd solvation model                     
  S Lehtola, MJT Oliveira, MAL Marques          : LibXC Library                           
  Liviu Ungur et al                             : ANISO software                          


 Your calculation uses the libint2 library for the computation of 2-el integrals
 For citations please refer to: http://libint.valeyev.net

 Your ORCA version has been built with support for libXC version: 7.0.0
 For citations please refer to: https://libxc.gitlab.io

 This ORCA versions uses:
   CBLAS   interface :  Fast vector & matrix operations
   LAPACKE interface :  Fast linear algebra routines
   SCALAPACK package :  Parallel linear algebra routines
   Shared memory     :  Shared parallel matrices
   BLAS/LAPACK       :  OpenBLAS 0.3.29  USE64BITINT DYNAMIC_ARCH NO_AFFINITY SkylakeX SINGLE_THREADED
        Core in use  :  SkylakeX
   Copyright (c) 2011-2014, The OpenBLAS Project


  ***********************************
  * Starting time: Mon Mar 23 18:11:20 2026
  * Host name:     fd1d9f0ce89c
  * Process ID:    54
  * Working dir.:  /kaggle/working
  ***********************************

NOTE: MaxCore=3000 MB was set to SCF,MP2,MDCI,CIPSI,MRCI,RASCI and CIS
      => If you want to overwrite this, your respective input block should be placed after the MaxCore statement
Your calculation utilizes the atom-pairwise dispersion correction
with the Becke-Johnson damping scheme (D3BJ)


Your calculation utilizes the SMD solvation module
Please cite in your paper:
Marenich, A. V.; Cramer, C. J.; Truhlar, D. G. J. Phys. Chem. B 2009, 113, 6378 

Warning: RI is on but no J-basis has been assigned. Assigning Def2/J (nothing to worry about!)
================================================================================

----- Orbital basis set information -----
Your calculation utilizes the basis: def2-TZVPP
   F. Weigend and R. Ahlrichs, Phys. Chem. Chem. Phys. 7, 3297 (2005).

----- AuxJ basis set information -----
Your calculation utilizes the auxiliary basis: def2/J
   H-Rn: F. Weigend, Phys. Chem. Chem. Phys. 8, 1057 (2006).
   Fr-Lr: K. Eichkorn, F. Weigend, O. Treutler, R. Ahlrichs; Theor. Chem. Acc. 97, 119 (1997).

================================================================================
                                        WARNINGS
                       Please study these warnings very carefully!
================================================================================


WARNING: Geometry Optimization
  ===> : Switching off AutoStart
         For restart on a previous wavefunction, please use MOREAD

================================================================================
                                       INPUT FILE
================================================================================
NAME = /kaggle/working/Phe-CN-1/Phe-CN_InterFrag.inp
|  1> 
|  2> !RKS B3LYP def2-TZVPP TightSCF Opt D3BJ # 6-31G(d,p)
|  3>  
|  4> %pal nprocs 2 end
|  5> %maxcore 3000
|  6> 
|  7> %cpcm
|  8>   smd true
|  9>   SMDsolvent "WATER"
| 10>   end
| 11> 
| 12> %scf
| 13>   MaxIter 1000
| 14>   SOSCF Start 0.00033
| 15>   end
| 16> end
| 17> 
| 18> %output
| 19>   PrintLevel Normal
| 20>   Print[ P_OrbEn ] 2        # print ALL orbital energies (not just up to LUMO+9) :contentReference[oaicite:10]{index=10}
| 21>   XYZFile true              # writes basename.xyz (handy for reuse) :contentReference[oaicite:11]{index=11}
| 22>   end
| 23> 
| 24> *xyz 0 1
| 25> O       -2.034900000     -1.719100000     -0.944500000
| 26> O       -3.813500000     -1.289200000      0.396200000
| 27> N       -3.701500000      1.344300000     -0.367400000
| 28> N        5.039500000     -0.656700000     -0.408400000
| 29> C       -1.523600000      1.040400000      0.718700000
| 30> C       -2.461700000      0.572100000     -0.404600000
| 31> C       -0.079800000      0.667600000      0.472000000
| 32> C        0.396300000     -0.546100000      0.939600000
| 33> C        0.738300000      1.546900000     -0.217900000
| 34> C       -2.854100000     -0.887300000     -0.249900000
| 35> C        1.728500000     -0.890200000      0.711200000
| 36> C        2.070600000      1.202600000     -0.446400000
| 37> C        2.565700000     -0.015900000      0.018300000
| 38> C        3.930200000     -0.369300000     -0.217100000
| 39> H       -1.844700000      0.635900000      1.688400000
| 40> H       -1.573900000      2.132900000      0.828300000
| 41> H       -2.014500000      0.713700000     -1.395300000
| 42> H       -0.246500000     -1.232900000      1.482500000
| 43> H        0.361000000      2.496600000     -0.585900000
| 44> H       -3.493000000      2.331500000     -0.514300000
| 45> H       -4.119100000      1.284400000      0.561200000
| 46> H        2.099700000     -1.843600000      1.079800000
| 47> H        2.710700000      1.894200000     -0.989100000
| 48> H       -2.302200000     -2.658200000     -0.850100000
| 49> *
| 50> 
| 51>                          ****END OF INPUT****
================================================================================

                       *****************************
                       * Geometry Optimization Run *
                       *****************************

Geometry optimization settings:
Update method            Update   .... BFGS
Choice of coordinates    CoordSys .... (2022) Redundant Internals
Initial Hessian          InHess   .... Almloef's Model
Max. no of cycles        MaxIter  .... 72

Convergence Tolerances:
Energy Change            TolE     ....  5.0000e-06 Eh
Max. Gradient            TolMAXG  ....  3.0000e-04 Eh/bohr
RMS Gradient             TolRMSG  ....  1.0000e-04 Eh/bohr
Max. Displacement        TolMAXD  ....  4.0000e-03 bohr
RMS Displacement         TolRMSD  ....  2.0000e-03 bohr
Strict Convergence                .... False

------------------------------------------------------------------------------
                        ORCA OPTIMIZATION COORDINATE SETUP
------------------------------------------------------------------------------

The optimization will be done in redundant internal coordinates (2022)
Making redundant internal coordinates   ...  (2022 redundants) done
Evaluating the initial hessian          ...  (Almloef) done
Evaluating the coordinates              ...  done
Calculating the B-matrix                .... done
Calculating the G-matrix                .... done
The number of degrees of freedom        ....  110

    -----------------------------------------------------------------
                    Redundant Internal Coordinates


    -----------------------------------------------------------------
         Definition                    Initial Value    Approx d2E/dq
    -----------------------------------------------------------------
      1. B(C   5,C   4)                  1.5366         0.364626   
      2. B(C   5,N   2)                  1.4611         0.430981   
      3. B(C   6,C   4)                  1.5114         0.399960   
      4. B(C   7,C   6)                  1.3851         0.636241   
      5. B(C   8,C   6)                  1.3851         0.636216   
      6. B(C   9,O   1)                  1.2245         1.027801   
      7. B(C   9,C   5)                  1.5191         0.388793   
      8. B(C   9,O   0)                  1.3585         0.628311   
      9. B(C  10,C   7)                  1.3948         0.613988   
     10. B(C  11,C   8)                  1.3949         0.613624   
     11. B(C  12,C  11)                  1.3949         0.613597   
     12. B(C  12,C  10)                  1.3948         0.613918   
     13. B(C  13,C  12)                  1.4290         0.541312   
     14. B(C  13,N   3)                  1.1618         1.294137   
     15. B(H  14,C   4)                  1.0987         0.348830   
     16. B(H  15,C   4)                  1.0991         0.348216   
     17. B(H  16,C   5)                  1.0961         0.352067   
     18. B(H  17,C   7)                  1.0861         0.365288   
     19. B(H  18,C   8)                  1.0861         0.365237   
     20. B(H  19,N   2)                  1.0196         0.417690   
     21. B(H  20,N   2)                  1.0199         0.417194   
     22. B(H  21,C  10)                  1.0875         0.363440   
     23. B(H  22,C  11)                  1.0875         0.363480   
     24. B(H  23,O   0)                  0.9810         0.481434   
     25. A(C   9,O   0,H  23)          111.8795         0.366095   
     26. A(C   5,N   2,H  20)          109.8505         0.335317   
     27. A(H  19,N   2,H  20)          105.7689         0.299802   
     28. A(C   5,N   2,H  19)          109.5434         0.335384   
     29. A(H  14,C   4,H  15)          105.3413         0.287876   
     30. A(C   6,C   4,H  14)          109.4171         0.326268   
     31. A(C   6,C   4,H  15)          107.7676         0.326173   
     32. A(C   5,C   4,C   6)          112.8734         0.366097   
     33. A(C   5,C   4,H  15)          110.3577         0.321260   
     34. A(C   5,C   4,H  14)          110.7682         0.321353   
     35. A(N   2,C   5,H  16)          107.5132         0.328829   
     36. A(C   4,C   5,H  16)          111.8556         0.321839   
     37. A(N   2,C   5,C   9)          106.6158         0.372593   
     38. A(C   9,C   5,H  16)          108.7550         0.325246   
     39. A(N   2,C   5,C   4)          109.7768         0.368503   
     40. A(C   4,C   5,C   9)          112.0882         0.364327   
     41. A(C   4,C   6,C   7)          119.3008         0.403308   
     42. A(C   7,C   6,C   8)          121.4280         0.438126   
     43. A(C   4,C   6,C   8)          119.2712         0.403305   
     44. A(C   6,C   7,H  17)          121.2941         0.355319   
     45. A(C   6,C   7,C  10)          119.2898         0.435327   
     46. A(C  10,C   7,H  17)          119.4158         0.353181   
     47. A(C  11,C   8,H  18)          119.4788         0.353138   
     48. A(C   6,C   8,H  18)          121.2433         0.355308   
     49. A(C   6,C   8,C  11)          119.2776         0.435277   
     50. A(O   0,C   9,O   1)          122.7718         0.470698   
     51. A(O   1,C   9,C   5)          124.8495         0.434244   
     52. A(O   0,C   9,C   5)          112.3581         0.397852   
     53. A(C   7,C  10,C  12)          120.0015         0.432538   
     54. A(C  12,C  10,H  21)          120.8670         0.352872   
     55. A(C   7,C  10,H  21)          119.1315         0.352878   
     56. A(C   8,C  11,C  12)          120.0024         0.432452   
     57. A(C  12,C  11,H  22)          120.8557         0.352847   
     58. A(C   8,C  11,H  22)          119.1419         0.352850   
     59. A(C  10,C  12,C  11)          120.0007         0.432489   
     60. A(C  11,C  12,C  13)          120.0029         0.422842   
     61. A(C  10,C  12,C  13)          119.9963         0.422881   
     62. L(N   3,C  13,C  12,C  10, 2) 179.9978         0.481019   
     63. L(N   3,C  13,C  12,C  10, 1) 179.9942         0.481019   
     64. D(C   9,C   5,C   4,C   6)     81.9369         0.010648   
     65. D(C   9,C   5,N   2,H  20)     67.0120         0.015836   
     66. D(C   9,C   5,C   4,H  14)    -41.1475         0.010648   
     67. D(C   9,C   5,C   4,H  15)   -157.4123         0.010648   
     68. D(N   2,C   5,C   4,H  14)     77.1379         0.010648   
     69. D(C   9,C   5,N   2,H  19)   -177.2192         0.015836   
     70. D(N   2,C   5,C   4,H  15)    -39.1270         0.010648   
     71. D(C   4,C   5,N   2,H  19)     61.1587         0.015836   
     72. D(N   2,C   5,C   4,C   6)   -159.7777         0.010648   
     73. D(H  16,C   5,N   2,H  19)    -60.7314         0.015836   
     74. D(C   4,C   5,N   2,H  20)    -54.6101         0.015836   
     75. D(C   7,C   6,C   4,H  15)    147.9270         0.011872   
     76. D(C   7,C   6,C   4,H  14)     33.8774         0.011872   
     77. D(C   7,C   6,C   4,C   5)    -89.9549         0.011872   
     78. D(C   8,C   6,C   4,C   5)     89.9929         0.011872   
     79. D(C   8,C   6,C   4,H  14)   -146.1748         0.011872   
     80. D(H  17,C   7,C   6,C   8)    179.8463         0.028103   
     81. D(H  17,C   7,C   6,C   4)     -0.2071         0.028103   
     82. D(C  10,C   7,C   6,C   8)      0.0198         0.028103   
     83. D(C  10,C   7,C   6,C   4)    179.9664         0.028103   
     84. D(H  18,C   8,C   6,C   7)    179.8112         0.028101   
     85. D(C  11,C   8,C   6,C   7)     -0.0128         0.028101   
     86. D(C  11,C   8,C   6,C   4)   -179.9595         0.028101   
     87. D(H  18,C   8,C   6,C   4)     -0.1354         0.028101   
     88. D(O   1,C   9,C   5,N   2)    -31.8196         0.011250   
     89. D(O   0,C   9,C   5,H  16)     30.9086         0.011250   
     90. D(O   0,C   9,C   5,C   4)    -93.2912         0.011250   
     91. D(O   0,C   9,C   5,N   2)    146.5651         0.011250   
     92. D(C   5,C   9,O   0,H  23)   -179.1842         0.029021   
     93. D(O   1,C   9,C   5,C   4)     88.3242         0.011250   
     94. D(O   1,C   9,O   0,H  23)     -0.7607         0.029021   
     95. D(H  21,C  10,C   7,H  17)      0.1471         0.026056   
     96. D(H  21,C  10,C   7,C   6)    179.9769         0.026056   
     97. D(C  12,C  10,C   7,H  17)   -179.8393         0.026056   
     98. D(C  12,C  10,C   7,C   6)     -0.0095         0.026056   
     99. D(H  22,C  11,C   8,H  18)      0.1163         0.026023   
    100. D(H  22,C  11,C   8,C   6)    179.9436         0.026023   
    101. D(C  12,C  11,C   8,H  18)   -179.8316         0.026023   
    102. D(C  12,C  11,C   8,C   6)     -0.0044         0.026023   
    103. D(C  13,C  12,C  11,C   8)    179.9293         0.026021   
    104. D(C  10,C  12,C  11,H  22)   -179.9327         0.026021   
    105. D(C  10,C  12,C  11,C   8)      0.0143         0.026021   
    106. D(C  13,C  12,C  10,H  21)      0.0915         0.026049   
    107. D(C  13,C  12,C  10,C   7)   -179.9224         0.026049   
    108. D(C  11,C  12,C  10,H  21)   -179.9935         0.026049   
    109. D(C  13,C  12,C  11,H  22)     -0.0177         0.026021   
    110. D(C  11,C  12,C  10,C   7)     -0.0074         0.026049   
    -----------------------------------------------------------------

Number of atoms                         .... 24
Number of degrees of freedom            .... 110


         *************************************************************
         *                GEOMETRY OPTIMIZATION CYCLE   1            *
         *************************************************************
---------------------------------
CARTESIAN COORDINATES (ANGSTROEM)
---------------------------------
  O     -2.034900   -1.719100   -0.944500
  O     -3.813500   -1.289200    0.396200
  N     -3.701500    1.344300   -0.367400
  N      5.039500   -0.656700   -0.408400
  C     -1.523600    1.040400    0.718700
  C     -2.461700    0.572100   -0.404600
  C     -0.079800    0.667600    0.472000
  C      0.396300   -0.546100    0.939600
  C      0.738300    1.546900   -0.217900
  C     -2.854100   -0.887300   -0.249900
  C      1.728500   -0.890200    0.711200
  C      2.070600    1.202600   -0.446400
  C      2.565700   -0.015900    0.018300
  C      3.930200   -0.369300   -0.217100
  H     -1.844700    0.635900    1.688400
  H     -1.573900    2.132900    0.828300
  H     -2.014500    0.713700   -1.395300
  H     -0.246500   -1.232900    1.482500
  H      0.361000    2.496600   -0.585900
  H     -3.493000    2.331500   -0.514300
  H     -4.119100    1.284400    0.561200
  H      2.099700   -1.843600    1.079800
  H      2.710700    1.894200   -0.989100
  H     -2.302200   -2.658200   -0.850100

----------------------------
CARTESIAN COORDINATES (A.U.)
----------------------------
  NO LB      ZA    FRAG     MASS         X           Y           Z
   0 O     8.0000    0    15.999   -3.845404   -3.248628   -1.784846
   1 O     8.0000    0    15.999   -7.206471   -2.436235    0.748709
   2 N     7.0000    0    14.007   -6.994821    2.540359   -0.694285
   3 N     7.0000    0    14.007    9.523275   -1.240983   -0.771764
   4 C     6.0000    0    12.011   -2.879187    1.966071    1.358146
   5 C     6.0000    0    12.011   -4.651939    1.081112   -0.764583
   6 C     6.0000    0    12.011   -0.150800    1.261581    0.891951
   7 C     6.0000    0    12.011    0.748898   -1.031979    1.775587
   8 C     6.0000    0    12.011    1.395185    2.923217   -0.411771
   9 C     6.0000    0    12.011   -5.393467   -1.676754   -0.472243
  10 C     6.0000    0    12.011    3.266392   -1.682234    1.343973
  11 C     6.0000    0    12.011    3.912867    2.272585   -0.843574
  12 C     6.0000    0    12.011    4.848470   -0.030047    0.034582
  13 C     6.0000    0    12.011    7.427002   -0.697876   -0.410260
  14 H     1.0000    0     1.008   -3.485978    1.201677    3.190614
  15 H     1.0000    0     1.008   -2.974240    4.030597    1.565260
  16 H     1.0000    0     1.008   -3.806853    1.348698   -2.636735
  17 H     1.0000    0     1.008   -0.465817   -2.329843    2.801519
  18 H     1.0000    0     1.008    0.682191    4.717890   -1.107191
  19 H     1.0000    0     1.008   -6.600813    4.405896   -0.971886
  20 H     1.0000    0     1.008   -7.783971    2.427164    1.060514
  21 H     1.0000    0     1.008    3.967858   -3.483899    2.040526
  22 H     1.0000    0     1.008    5.122481    3.579519   -1.869128
  23 H     1.0000    0     1.008   -4.350528   -5.023270   -1.606456

--------------------------------
INTERNAL COORDINATES (ANGSTROEM)
--------------------------------
 O      0   0   0     0.000000000000     0.00000000     0.00000000
 O      1   0   0     2.268415407283     0.00000000     0.00000000
 N      2   1   0     2.744257861426    89.16406527     0.00000000
 N      1   2   3     7.173787864859   134.50525546    77.74688598
 C      3   2   1     2.452593898304    78.11849321   298.10926661
 C      3   2   1     1.461088881622    62.25976776   332.82981553
 C      5   3   2     1.511422895817   143.76020258    91.36326943
 C      7   5   3     1.385059081772   119.30080024   250.91056087
 C      7   5   3     1.385069713047   119.27119581    70.85833690
 C      2   1   3     1.224506913006    30.23481590   342.87037959
 C      8   7   5     1.394750232120   119.28980137   179.96638559
 C      9   7   5     1.394911477478   119.27764703   180.04052889
 C     11   8   7     1.394781251666   120.00149070     0.00000000
 C      4   1   2     1.161783516840    26.79107513   326.19824224
 H      5   3   2     1.098655337219   100.19201470   306.61212451
 H      5   3   2     1.099135341985    83.12856423   202.18844534
 H      6   3   2     1.096140907913   107.51316359   129.08754649
 H      8   7   5     1.086106113600   121.29414032   359.79287416
 H      9   7   5     1.086144272185   121.24333093   359.86461423
 H      3   2   1     1.019615466732   167.84082118   283.09977324
 H      3   2   1     1.019939081514    70.94934457   206.85018971
 H     11   8   7     1.087486533250   119.13153844   179.97692517
 H     12   9   7     1.087456601433   119.14191348   179.94357798
 H      1   2   3     0.980953342417    84.88825533   196.42087106

---------------------------
INTERNAL COORDINATES (A.U.)
---------------------------
 O      0   0   0     0.000000000000     0.00000000     0.00000000
 O      1   0   0     4.286683877733     0.00000000     0.00000000
 N      2   1   0     5.185895798956    89.16406527     0.00000000
 N      1   2   3    13.556494407431   134.50525546    77.74688598
 C      3   2   1     4.634730785522    78.11849321   298.10926661
 C      3   2   1     2.761057843583    62.25976776   332.82981553
 C      5   3   2     2.856175345632   143.76020258    91.36326943
 C      7   5   3     2.617382343850   119.30080024   250.91056087
 C      7   5   3     2.617402434048   119.27119581    70.85833690
 C      2   1   3     2.313982714675    30.23481590   342.87037959
 C      8   7   5     2.635695963931   119.28980137   179.96638559
 C      9   7   5     2.636000673497   119.27764703   180.04052889
 C     11   8   7     2.635754582377   120.00149070     0.00000000
 C      4   1   2     2.195452673731    26.79107513   326.19824224
 H      5   3   2     2.076157702915   100.19201470   306.61212451
 H      5   3   2     2.077064780465    83.12856423   202.18844534
 H      6   3   2     2.071406120143   107.51316359   129.08754649
 H      8   7   5     2.052443107082   121.29414032   359.79287416
 H      9   7   5     2.052515216357   121.24333093   359.86461423
 H      3   2   1     1.926793994035   167.84082118   283.09977324
 H      3   2   1     1.927405537345    70.94934457   206.85018971
 H     11   8   7     2.055051722170   119.13153844   179.97692517
 H     12   9   7     2.054995159233   119.14191348   179.94357798
 H      1   2   3     1.853733167324    84.88825533   196.42087106

---------------------
BASIS SET INFORMATION
---------------------
There are 4 groups of distinct atoms

 Group   1 Type O   : 11s6p2d1f contracted to 5s3p2d1f pattern {62111/411/11/1}
 Group   2 Type N   : 11s6p2d1f contracted to 5s3p2d1f pattern {62111/411/11/1}
 Group   3 Type C   : 11s6p2d1f contracted to 5s3p2d1f pattern {62111/411/11/1}
 Group   4 Type H   : 5s2p1d contracted to 3s2p1d pattern {311/11/1}

Atom   0O    basis set group =>   1
Atom   1O    basis set group =>   1
Atom   2N    basis set group =>   2
Atom   3N    basis set group =>   2
Atom   4C    basis set group =>   3
Atom   5C    basis set group =>   3
Atom   6C    basis set group =>   3
Atom   7C    basis set group =>   3
Atom   8C    basis set group =>   3
Atom   9C    basis set group =>   3
Atom  10C    basis set group =>   3
Atom  11C    basis set group =>   3
Atom  12C    basis set group =>   3
Atom  13C    basis set group =>   3
Atom  14H    basis set group =>   4
Atom  15H    basis set group =>   4
Atom  16H    basis set group =>   4
Atom  17H    basis set group =>   4
Atom  18H    basis set group =>   4
Atom  19H    basis set group =>   4
Atom  20H    basis set group =>   4
Atom  21H    basis set group =>   4
Atom  22H    basis set group =>   4
Atom  23H    basis set group =>   4
---------------------------------
AUXILIARY/J BASIS SET INFORMATION
---------------------------------
There are 4 groups of distinct atoms

 Group   1 Type O   : 12s5p4d2f1g contracted to 6s4p3d1f1g pattern {711111/2111/211/2/1}
 Group   2 Type N   : 12s5p4d2f1g contracted to 6s4p3d1f1g pattern {711111/2111/211/2/1}
 Group   3 Type C   : 12s5p4d2f1g contracted to 6s4p3d1f1g pattern {711111/2111/211/2/1}
 Group   4 Type H   : 5s2p1d contracted to 3s1p1d pattern {311/2/1}

Atom   0O    basis set group =>   1
Atom   1O    basis set group =>   1
Atom   2N    basis set group =>   2
Atom   3N    basis set group =>   2
Atom   4C    basis set group =>   3
Atom   5C    basis set group =>   3
Atom   6C    basis set group =>   3
Atom   7C    basis set group =>   3
Atom   8C    basis set group =>   3
Atom   9C    basis set group =>   3
Atom  10C    basis set group =>   3
Atom  11C    basis set group =>   3
Atom  12C    basis set group =>   3
Atom  13C    basis set group =>   3
Atom  14H    basis set group =>   4
Atom  15H    basis set group =>   4
Atom  16H    basis set group =>   4
Atom  17H    basis set group =>   4
Atom  18H    basis set group =>   4
Atom  19H    basis set group =>   4
Atom  20H    basis set group =>   4
Atom  21H    basis set group =>   4
Atom  22H    basis set group =>   4
Atom  23H    basis set group =>   4


           ************************************************************
           *        Program running with 2 parallel MPI-processes     *
           *              working on a common directory               *
           ************************************************************
------------------------------------------------------------------------------
                             ORCA STARTUP CALCULATIONS
                           -- RI-GTO INTEGRALS CHOSEN --
------------------------------------------------------------------------------
------------------------------------------------------------------------------
                   ___                                                        
                  /   \      - P O W E R E D   B Y -                         
                 /     \                                                     
                 |  |  |   _    _      __       _____    __    __             
                 |  |  |  | |  | |    /  \     |  _  \  |  |  /  |          
                  \  \/   | |  | |   /    \    | | | |  |  | /  /          
                 / \  \   | |__| |  /  /\  \   | |_| |  |  |/  /          
                |  |  |   |  __  | /  /__\  \  |    /   |      \           
                |  |  |   | |  | | |   __   |  |    \   |  |\   \          
                \     /   | |  | | |  |  |  |  | |\  \  |  | \   \       
                 \___/    |_|  |_| |__|  |__|  |_| \__\ |__|  \__/        
                                                                              
                      - O R C A' S   B I G   F R I E N D -                    
                                      &                                       
                       - I N T E G R A L  F E E D E R -                       
                                                                              
 v1 FN, 2020, v2 2021, v3 2022-2024                                           
------------------------------------------------------------------------------


----------------------
SHARK INTEGRAL PACKAGE
----------------------

Number of atoms                             ...     24
Number of basis functions                   ...    574
Number of shells                            ...    214
Maximum angular momentum                    ...      3
Integral batch strategy                     ... SHARK/LIBINT Hybrid
RI-J (if used) integral strategy            ... SPLIT-RIJ (Revised 2003 algorithm where possible)
Printlevel                                  ...      1
Contraction scheme used                     ... SEGMENTED contraction
Prescreening option                         ... SCHWARTZ
   Thresh                                   ... 2.500e-11
   Tcut                                     ... 2.500e-12
   Tpresel                                  ... 2.500e-12 
Coulomb Range Separation                    ... NOT USED
Exchange Range Separation                   ... NOT USED
Multipole approximations                    ... NOT USED
Finite Nucleus Model                        ... NOT USED
CABS basis                                  ... NOT available
Auxiliary Coulomb fitting basis             ... AVAILABLE
   # of basis functions in Aux-J            ...    796
   # of shells in Aux-J                     ...    260
   Maximum angular momentum in Aux-J        ...      4
Auxiliary J/K fitting basis                 ... NOT available
Auxiliary Correlation fitting basis         ... NOT available
Auxiliary 'external' fitting basis          ... NOT available

Checking pre-screening integrals            ... done (  0.0 sec) Dimension = 214
   => SHARK Basis and OBASIS are compatible. Storing Pre-screening
Shell pair information
Shell pair cut-off parameter TPreSel        ...   2.5e-12
Total number of shell pairs                 ...     23005
Shell pairs after pre-screening             ...     18126
Total number of primitive shell pairs       ...     65318
Primitive shell pairs kept                  ...     36827
          la=0 lb=0:   3899 shell pairs
          la=1 lb=0:   5050 shell pairs
          la=1 lb=1:   1682 shell pairs
          la=2 lb=0:   2848 shell pairs
          la=2 lb=1:   1901 shell pairs
          la=2 lb=2:    545 shell pairs
          la=3 lb=0:   1045 shell pairs
          la=3 lb=1:    689 shell pairs
          la=3 lb=2:    388 shell pairs
          la=3 lb=3:     79 shell pairs

Checking whether 4 symmetric matrices of dimension 574 fit in memory
:Max Core in MB      =   3000.00
 MB in use           =     25.55
 MB left             =   2974.45
 MB needed           =      5.04
 Data fit in memory  = YES
Calculating RI/J V-Matrix + Cholesky decomp.... done (  0.3 sec)
Calculating Nuclear repulsion               ... done (  0.0 sec) ENN=    815.170045497863 Eh

Diagonalization of the overlap matrix:
Smallest eigenvalue                        ... 7.182e-06
Time for diagonalization                   ...    0.091 sec
Threshold for overlap eigenvalues          ... 1.000e-07
Number of eigenvalues below threshold      ... 0
Time for construction of square roots      ...    0.033 sec
Total time needed                          ...    0.130 sec

-------------------
DFT GRID GENERATION
-------------------

General Integration Accuracy     IntAcc      ... 4.388
Radial Grid Type                 RadialGrid  ... OptM3 with GC (2021)
Angular Grid (max. ang.)         AngularGrid ... 4 (Lebedev-302)
Angular grid pruning method      GridPruning ... 4 (adaptive)
Weight generation scheme         WeightScheme... mBecke (2022)
Basis function cutoff            BFCut       ... 1.0000e-11
Integration weight cutoff        WCut        ... 1.0000e-14
Partially contracted basis set               ... off
Rotationally invariant grid construction     ... off
Angular grids for H and He will be reduced by one unit

Total number of grid points                  ...   116083
Total number of batches                      ...     1826
Average number of points per batch           ...       63
Average number of grid points per atom       ...     4837

--------------------
COSX GRID GENERATION
--------------------

GRIDX 1
-------
General Integration Accuracy     IntAcc      ... 3.816
Radial Grid Type                 RadialGrid  ... OptM3 with GC (2021)
Angular Grid (max. ang.)         AngularGrid ... 1 (Lebedev-50)
Angular grid pruning method      GridPruning ... 4 (adaptive)
Weight generation scheme         WeightScheme... mBecke (2022)
Basis function cutoff            BFCut       ... 1.0000e-11
Integration weight cutoff        WCut        ... 1.0000e-14
Partially contracted basis set               ... on
Rotationally invariant grid construction     ... off
Angular grids for H and He will be reduced by one unit

Total number of grid points                  ...    14729
Total number of batches                      ...      128
Average number of points per batch           ...      115
Average number of grid points per atom       ...      614
UseSFitting                                  ... on

GRIDX 2
-------
General Integration Accuracy     IntAcc      ... 4.020
Radial Grid Type                 RadialGrid  ... OptM3 with GC (2021)
Angular Grid (max. ang.)         AngularGrid ... 2 (Lebedev-110)
Angular grid pruning method      GridPruning ... 4 (adaptive)
Weight generation scheme         WeightScheme... mBecke (2022)
Basis function cutoff            BFCut       ... 1.0000e-11
Integration weight cutoff        WCut        ... 1.0000e-14
Partially contracted basis set               ... on
Rotationally invariant grid construction     ... off
Angular grids for H and He will be reduced by one unit

Total number of grid points                  ...    32412
Total number of batches                      ...      267
Average number of points per batch           ...      121
Average number of grid points per atom       ...     1350
UseSFitting                                  ... on

GRIDX 3
-------
General Integration Accuracy     IntAcc      ... 4.338
Radial Grid Type                 RadialGrid  ... OptM3 with GC (2021)
Angular Grid (max. ang.)         AngularGrid ... 3 (Lebedev-194)
Angular grid pruning method      GridPruning ... 4 (adaptive)
Weight generation scheme         WeightScheme... mBecke (2022)
Basis function cutoff            BFCut       ... 1.0000e-11
Integration weight cutoff        WCut        ... 1.0000e-14
Partially contracted basis set               ... on
Rotationally invariant grid construction     ... off
Angular grids for H and He will be reduced by one unit

Total number of grid points                  ...    71210
Total number of batches                      ...      568
Average number of points per batch           ...      125
Average number of grid points per atom       ...     2967
UseSFitting                                  ... on
Grids setup in   4.7 sec
Initializing property integral containers    ... done (  0.0 sec)

SHARK setup successfully completed in   5.7 seconds

Maximum memory used throughout the entire STARTUP-calculation: 67.4 MB


           ************************************************************
           *        Program running with 2 parallel MPI-processes     *
           *              working on a common directory               *
           ************************************************************
-------------------------------------------------------------------------------
                                 ORCA GUESS
                   Start orbitals & Density for SCF / CASSCF
-------------------------------------------------------------------------------

------------
SCF SETTINGS
------------
Hamiltonian:
 Density Functional     Method          .... DFT(GTOs)
 Exchange Functional    Exchange        .... B88
   X-Alpha parameter    XAlpha          ....  0.666667
   Becke's b parameter  XBeta           ....  0.004200
 Correlation Functional Correlation     .... LYP
 LDA part of GGA corr.  LDAOpt          .... VWN-5
 Gradients option       PostSCFGGA      .... off
 Hybrid DFT is turned on
   Fraction HF Exchange ScalHFX         ....  0.200000
   Scaling of DF-GGA-X  ScalDFX         ....  0.720000
   Scaling of DF-GGA-C  ScalDFC         ....  0.810000
   Scaling of DF-LDA-C  ScalLDAC        ....  1.000000
   Perturbative correction              ....  0.000000
   NL short-range parameter             ....  4.800000
 RI-approximation to the Coulomb term is turned on
   Number of AuxJ basis functions       .... 796
   RIJ-COSX (HFX calculated with COS-X)).... on


General Settings:
 Integral files         IntName         .... /kaggle/working/Phe-CN-1/Phe-CN_InterFrag
 Hartree-Fock type      HFTyp           .... RHF
 Total Charge           Charge          ....    0
 Multiplicity           Mult            ....    1
 Number of Electrons    NEL             ....  100
 Basis Dimension        Dim             ....  574
 Nuclear Repulsion      ENuc            ....    815.1700454979 Eh

Convergence Acceleration:
 AO-DIIS                CNVDIIS         .... on
   Start iteration      DIISMaxIt       ....    12
   Startup error        DIISStart       ....  0.200000
   # of expansion vecs  DIISMaxEq       ....     5
   Bias factor          DIISBfac        ....   1.050
   Max. coefficient     DIISMaxC        ....  10.000
 MO-DIIS                CNVKDIIS        .... off
 Trust-Rad. Augm. Hess. CNVTRAH         .... auto
   Auto Start mean grad. ratio tolernc. ....  1.125000
   Auto Start start iteration           ....    50
   Auto Start num. interpolation iter.  ....    10
   Max. Number of Micro iterations      ....    24
   Max. Number of Macro iterations      .... Maxiter - #DIIS iter
   Number of Davidson start vectors     ....     2
   Converg. threshold    (grad. norm)   ....   1.000e-05
   Grad. Scal. Fac. for Micro threshold ....   0.100
   Minimum threshold for Micro iter.    ....   1.000e-02
   NR start threshold (gradient norm)   ....   1.000e-04
   Initial trust radius                 ....   0.400
   Minimum AH scaling param. (alpha)    ....   1.000
   Maximum AH scaling param. (alpha)    .... 1000.000
   Quad. conv. algorithm                .... NR
   White noise on init. David. guess    .... on
   Maximum white noise                  ....   0.010
   Pseudo random numbers                .... off
   Inactive MOs                         .... canonical
   Orbital update algorithm             .... Taylor
   Preconditioner                       .... Diag
   Full preconditioner red. dimension   ....   250
 SOSCF                 CNVSOSCF           .... on
   Start iteration     SOSCFMaxIt         ....   150
   Startup grad/error  SOSCFStart         ....  0.000330
   Hessian update      SOSCFHessUp        .... L-BFGS
   Autom. constraints  SOSCFAutoConstrain .... off
 Level Shifting         CNVShift        .... on
   Level shift para.    LevelShift      ....    0.2500
   Turn off err/grad.   ShiftErr        ....    0.0010
 Zerner damping         CNVZerner       .... off
 Static damping         CNVDamp         .... on
   Fraction old density DampFac         ....    0.7000
   Max. Damping (<1)    DampMax         ....    0.9800
   Min. Damping (>=0)   DampMin         ....    0.0000
   Turn off err/grad.   DampErr         ....    0.1000

SCF Procedure:
 Maximum # iterations   MaxIter         ....  1000
 SCF integral mode      SCFMode         .... Direct
   Integral package                     .... SHARK and LIBINT hybrid scheme
 Reset frequency        DirectResetFreq ....    20
 Integral Threshold     Thresh          ....  2.500e-11 Eh
 Primitive CutOff       TCut            ....  2.500e-12 Eh

Convergence Tolerance:
 Convergence Check Mode ConvCheckMode   .... Total+1el-Energy
 Convergence forced     ConvForced      .... 0
 Energy Change          TolE            ....  1.000e-08 Eh
 1-El. energy change                    ....  1.000e-05 Eh
 Orbital Gradient       TolG            ....  1.000e-05
 Orbital Rotation angle TolX            ....  1.000e-05
 DIIS Error             TolErr          ....  5.000e-07

------------------------------
INITIAL GUESS: MODEL POTENTIAL
------------------------------
Loading Hartree-Fock densities                     ... done
Calculating cut-offs                               ... done
Initializing the effective Hamiltonian             ... done
Setting up the integral package (SHARK)            ... done
Starting the Coulomb interaction                   ... done (   1.1 sec)
Making the grid                                    ... done (   0.5 sec)
Mapping shells                                     ... done
Starting the XC term evaluation                    ... done (   0.8 sec)
  promolecular density results
     # of electrons  =    100.002424735
     EX              =    -83.875483318
     EC              =     -3.411621129
     EX+EC           =    -87.287104447
Transforming the Hamiltonian                       ... done (   0.0 sec)
Diagonalizing the Hamiltonian                      ... done (   0.1 sec)
Back transforming the eigenvectors                 ... done (   0.0 sec)
Now organizing SCF variables                       ... done
                      ------------------
                      INITIAL GUESS DONE (   2.6 sec)
                      ------------------
             **** ENERGY FILE WAS UPDATED (/kaggle/working/Phe-CN-1/Phe-CN_InterFrag.en.tmp) ****
Finished Guess after   3.1 sec
Maximum memory used throughout the entire GUESS-calculation: 49.2 MB


           ************************************************************
           *        Program running with 2 parallel MPI-processes     *
           *              working on a common directory               *
           ************************************************************

-------------------------------------------------------------------------------------------
                                      ORCA LEAN-SCF
                              memory conserving SCF solver
-------------------------------------------------------------------------------------------

--------------------
CPCM SOLVATION MODEL
--------------------
CPCM parameters:
  Epsilon                                         ...      78.3550
  Refrac                                          ...       1.3328
  Rsolv                                           ...       1.3000
  Surface type                                    ... GAUSSIAN VDW
  Discretization scheme                           ... Constant charge density
    Threshold for H atoms                         ...       5.0000 (charges/Ang^2)
    Threshold for non-H atoms                     ...       5.0000 (charges/Ang^2)
  Epsilon function type                           ...         CPCM
Solvent:                                          ... WATER
SMD-CDS solvent descriptors:
  Soln                                            ...       1.3328
  Soln25                                          ...       1.3323
  Sola                                            ...       0.0000
  Solb                                            ...       0.0000
  Solg                                            ...       0.0000
  Solc                                            ...       0.0000
  Solh                                            ...       0.0000
Radii:
  Scheme                                          ... Element-dependent radii
  Radius for O  used is    2.8724 Bohr (=   1.5200 Ang.)
  Radius for N  used is    3.5716 Bohr (=   1.8900 Ang.)
  Radius for C  used is    3.4960 Bohr (=   1.8500 Ang.)
  Radius for H  used is    2.2677 Bohr (=   1.2000 Ang.)
Calculating surface                               ...        done! (  0.0s)
Cavity surface points                             ...         1906
Cavity Volume                                     ...    1334.3190
Cavity Surface-area                               ...     810.9303
Calculating surface distance matrix               ...        done! (  0.1s)
Performing Cholesky decomposition & store         ...        done! (  0.2s)
Overall time for CPCM initialization              ...                 0.2s

----------------------------------------D-I-I-S--------------------------------------------
Iteration    Energy (Eh)           Delta-E    RMSDP     MaxDP     DIISErr   Damp  Time(sec)
-------------------------------------------------------------------------------------------
               ***  Starting incremental Fock matrix formation  ***
    1    -646.5097686854585390     0.00e+00  1.94e-03  9.55e-02  2.84e-01  0.700  31.0
    2    -646.7227707063277649    -2.13e-01  1.64e-03  9.18e-02  1.27e-01  0.700  16.1
                               ***Turning on AO-DIIS***
    3    -646.8002625862545756    -7.75e-02  6.30e-04  2.61e-02  3.64e-02  0.700  15.7
    4    -646.8489347015467956    -4.87e-02  8.70e-04  2.29e-02  2.06e-02  0.000  15.0
    5    -646.9566746312173109    -1.08e-01  3.49e-04  1.95e-02  7.93e-03  0.000  15.5
    6    -646.9573181951998322    -6.44e-04  1.29e-04  7.29e-03  2.41e-03  0.000  14.1
    7    -646.9573458946676965    -2.77e-05  4.73e-05  2.20e-03  2.15e-03  0.000  13.1
    8    -646.9573539051380067    -8.01e-06  1.73e-05  6.05e-04  9.78e-04  0.000  12.3
               *** Restarting incremental Fock matrix formation ***
                             ****Resetting DIIS****
                              *** Initializing SOSCF ***
---------------------------------------S-O-S-C-F--------------------------------------
Iteration    Energy (Eh)           Delta-E    RMSDP     MaxDP     MaxGrad    Time(sec)
--------------------------------------------------------------------------------------
    9    -646.9573647980694204    -1.09e-05  2.20e-05  7.31e-04  1.41e-04    31.1
               *** Restarting incremental Fock matrix formation ***
   10    -646.9573648429236528    -4.49e-08  9.69e-06  5.92e-04  1.36e-04    30.8
   11    -646.9573640849155254     7.58e-07  6.32e-06  3.73e-04  3.19e-04    16.0
   12    -646.9573650109443861    -9.26e-07  2.02e-06  9.22e-05  5.81e-06    14.7
   13    -646.9573650114368775    -4.92e-10  7.50e-07  3.81e-05  9.04e-06    13.1
                 **** Energy Check signals convergence ****

               *****************************************************
               *                     SUCCESS                       *
               *           SCF CONVERGED AFTER  13 CYCLES          *
               *****************************************************

Recomputing exchange energy using gridx3       ... done (   49.410 sec)
Old exchange energy                            :    -17.011384107 Eh
New exchange energy                            :    -17.011401482 Eh
Exchange energy change after final integration :     -0.000017375 Eh
Total energy after final integration           :   -646.957382365 Eh

SMD CDS free energy correction energy :                 6.33068     Kcal/mol
Total Energy after SMD CDS correction =              -646.947293780 Eh
             **** ENERGY FILE WAS UPDATED (/kaggle/working/Phe-CN-1/Phe-CN_InterFrag.en.tmp) ****

----------------
TOTAL SCF ENERGY
----------------

Total Energy       :       -646.94729377990689 Eh          -17604.33085 eV

Components:
Nuclear Repulsion  :        815.17004549786338 Eh           22181.90464 eV
Electronic Energy  :      -1462.08330183350108 Eh          -39785.30929 eV
One Electron Energy:      -2494.87452377882028 Eh          -67888.98720 eV
Two Electron Energy:       1032.79122194531919 Eh           28103.67791 eV
CPCM Dielectric    :         -0.04410865376940 Eh              -1.20026 eV
SMD CDS (Gcds)     :          0.01008858489117 Eh               0.27452 eV

Virial components:
Potential Energy   :      -1290.90788653304412 Eh          -35127.38943 eV
Kinetic Energy     :        643.96059275313723 Eh           17523.05858 eV
Virial Ratio       :          2.00463801832035

DFT components:
N(Alpha)           :       50.000001027930 electrons
N(Beta)            :       50.000001027930 electrons
N(Total)           :      100.000002055859 electrons
E(X)               :      -67.655450696058 Eh       
E(C)               :       -4.027392980182 Eh       
E(XC)              :      -71.682843676240 Eh       

CPCM Solvation Model Properties:
Surface-charge          :         -0.04808704188478
Corrected charge        :          0.00000000000000
Outlying charge corr.   :          0.00014816709051 Eh               0.00403 eV
Free-energy (cav+disp)  :          0.01008858489117 Eh               0.27452 eV

---------------
SCF CONVERGENCE
---------------

  Last Energy change         ...    4.9249e-10  Tolerance :   1.0000e-08
  Last MAX-Density change    ...    3.8054e-05  Tolerance :   1.0000e-07
  Last RMS-Density change    ...    7.5000e-07  Tolerance :   5.0000e-09
  Last DIIS Error            ...    1.4145e-04  Tolerance :   5.0000e-07
  Last Orbital Gradient      ...    9.0426e-06  Tolerance :   1.0000e-05
  Last Orbital Rotation      ...    8.0213e-06  Tolerance :   1.0000e-05


----------------
ORBITAL ENERGIES
----------------

  NO   OCC          E(Eh)            E(eV) 
   0   2.0000     -19.177168      -521.8373 
   1   2.0000     -19.128760      -520.5200 
   2   2.0000     -14.321570      -389.7097 
   3   2.0000     -14.293991      -388.9593 
   4   2.0000     -10.316973      -280.7391 
   5   2.0000     -10.223540      -278.1967 
   6   2.0000     -10.217114      -278.0218 
   7   2.0000     -10.214425      -277.9486 
   8   2.0000     -10.191568      -277.3267 
   9   2.0000     -10.191295      -277.3192 
  10   2.0000     -10.189939      -277.2823 
  11   2.0000     -10.179521      -276.9988 
  12   2.0000     -10.179028      -276.9854 
  13   2.0000     -10.174468      -276.8614 
  14   2.0000      -1.105901       -30.0931 
  15   2.0000      -1.022650       -27.8277 
  16   2.0000      -0.917616       -24.9696 
  17   2.0000      -0.895808       -24.3762 
  18   2.0000      -0.875003       -23.8100 
  19   2.0000      -0.800011       -21.7694 
  20   2.0000      -0.759099       -20.6561 
  21   2.0000      -0.738061       -20.0837 
  22   2.0000      -0.686678       -18.6855 
  23   2.0000      -0.623874       -16.9765 
  24   2.0000      -0.621650       -16.9160 
  25   2.0000      -0.586572       -15.9614 
  26   2.0000      -0.556949       -15.1554 
  27   2.0000      -0.530764       -14.4428 
  28   2.0000      -0.498206       -13.5569 
  29   2.0000      -0.482464       -13.1285 
  30   2.0000      -0.477243       -12.9864 
  31   2.0000      -0.467546       -12.7226 
  32   2.0000      -0.447630       -12.1806 
  33   2.0000      -0.438942       -11.9442 
  34   2.0000      -0.431787       -11.7495 
  35   2.0000      -0.426112       -11.5951 
  36   2.0000      -0.408598       -11.1185 
  37   2.0000      -0.402390       -10.9496 
  38   2.0000      -0.390805       -10.6343 
  39   2.0000      -0.382726       -10.4145 
  40   2.0000      -0.374460       -10.1896 
  41   2.0000      -0.356885        -9.7113 
  42   2.0000      -0.353598        -9.6219 
  43   2.0000      -0.347531        -9.4568 
  44   2.0000      -0.341902        -9.3036 
  45   2.0000      -0.334258        -9.0956 
  46   2.0000      -0.296357        -8.0643 
  47   2.0000      -0.267771        -7.2864 
  48   2.0000      -0.267044        -7.2666 
  49   2.0000      -0.244042        -6.6407 
  50   0.0000      -0.050593        -1.3767 
  51   0.0000      -0.024815        -0.6753 
  52   0.0000      -0.012740        -0.3467 
  53   0.0000       0.022975         0.6252 
  54   0.0000       0.041325         1.1245 
  55   0.0000       0.051203         1.3933 
  56   0.0000       0.054505         1.4832 
  57   0.0000       0.062920         1.7121 
  58   0.0000       0.078804         2.1444 
  59   0.0000       0.084677         2.3042 
  60   0.0000       0.095920         2.6101 
  61   0.0000       0.099039         2.6950 
  62   0.0000       0.110676         3.0116 
  63   0.0000       0.120726         3.2851 
  64   0.0000       0.136208         3.7064 
  65   0.0000       0.140184         3.8146 
  66   0.0000       0.147765         4.0209 
  67   0.0000       0.152258         4.1432 
  68   0.0000       0.168491         4.5849 
  69   0.0000       0.186537         5.0759 
  70   0.0000       0.189492         5.1563 
  71   0.0000       0.196928         5.3587 
  72   0.0000       0.198881         5.4118 
  73   0.0000       0.207559         5.6480 
  74   0.0000       0.218411         5.9433 
  75   0.0000       0.225703         6.1417 
  76   0.0000       0.230523         6.2728 
  77   0.0000       0.240768         6.5516 
  78   0.0000       0.245110         6.6698 
  79   0.0000       0.253282         6.8922 
  80   0.0000       0.254884         6.9357 
  81   0.0000       0.256505         6.9798 
  82   0.0000       0.281484         7.6596 
  83   0.0000       0.290298         7.8994 
  84   0.0000       0.292894         7.9701 
  85   0.0000       0.294742         8.0203 
  86   0.0000       0.299737         8.1563 
  87   0.0000       0.307842         8.3768 
  88   0.0000       0.314628         8.5615 
  89   0.0000       0.326074         8.8729 
  90   0.0000       0.330661         8.9977 
  91   0.0000       0.332539         9.0489 
  92   0.0000       0.343936         9.3590 
  93   0.0000       0.351455         9.5636 
  94   0.0000       0.357272         9.7219 
  95   0.0000       0.362149         9.8546 
  96   0.0000       0.369796        10.0627 
  97   0.0000       0.377656        10.2766 
  98   0.0000       0.379515        10.3271 
  99   0.0000       0.391288        10.6475 
 100   0.0000       0.394318        10.7299 
 101   0.0000       0.398305        10.8384 
 102   0.0000       0.410087        11.1590 
 103   0.0000       0.420011        11.4291 
 104   0.0000       0.421057        11.4575 
 105   0.0000       0.424843        11.5606 
 106   0.0000       0.434161        11.8141 
 107   0.0000       0.437458        11.9038 
 108   0.0000       0.447388        12.1740 
 109   0.0000       0.456452        12.4207 
 110   0.0000       0.464970        12.6525 
 111   0.0000       0.467429        12.7194 
 112   0.0000       0.474914        12.9231 
 113   0.0000       0.478209        13.0127 
 114   0.0000       0.480250        13.0683 
 115   0.0000       0.490826        13.3560 
 116   0.0000       0.497890        13.5483 
 117   0.0000       0.503623        13.7043 
 118   0.0000       0.514508        14.0005 
 119   0.0000       0.521852        14.2003 
 120   0.0000       0.534913        14.5557 
 121   0.0000       0.540892        14.7184 
 122   0.0000       0.545473        14.8431 
 123   0.0000       0.550847        14.9893 
 124   0.0000       0.560724        15.2581 
 125   0.0000       0.567124        15.4322 
 126   0.0000       0.586688        15.9646 
 127   0.0000       0.595494        16.2042 
 128   0.0000       0.607080        16.5195 
 129   0.0000       0.612586        16.6693 
 130   0.0000       0.620578        16.8868 
 131   0.0000       0.632626        17.2146 
 132   0.0000       0.640787        17.4367 
 133   0.0000       0.645284        17.5591 
 134   0.0000       0.649637        17.6775 
 135   0.0000       0.663401        18.0521 
 136   0.0000       0.671188        18.2639 
 137   0.0000       0.674767        18.3614 
 138   0.0000       0.677241        18.4287 
 139   0.0000       0.696122        18.9424 
 140   0.0000       0.704839        19.1796 
 141   0.0000       0.712615        19.3912 
 142   0.0000       0.721605        19.6359 
 143   0.0000       0.741424        20.1752 
 144   0.0000       0.750878        20.4324 
 145   0.0000       0.768349        20.9078 
 146   0.0000       0.785198        21.3663 
 147   0.0000       0.788542        21.4573 
 148   0.0000       0.806387        21.9429 
 149   0.0000       0.809913        22.0388 
 150   0.0000       0.820600        22.3297 
 151   0.0000       0.827917        22.5288 
 152   0.0000       0.830505        22.5992 
 153   0.0000       0.837725        22.7956 
 154   0.0000       0.848351        23.0848 
 155   0.0000       0.870639        23.6913 
 156   0.0000       0.875137        23.8137 
 157   0.0000       0.887661        24.1545 
 158   0.0000       0.903178        24.5767 
 159   0.0000       0.919097        25.0099 
 160   0.0000       0.927189        25.2301 
 161   0.0000       0.940468        25.5914 
 162   0.0000       0.941387        25.6164 
 163   0.0000       0.955215        25.9927 
 164   0.0000       0.970418        26.4064 
 165   0.0000       0.985289        26.8111 
 166   0.0000       0.985908        26.8279 
 167   0.0000       0.994983        27.0749 
 168   0.0000       1.002043        27.2670 
 169   0.0000       1.012443        27.5500 
 170   0.0000       1.019746        27.7487 
 171   0.0000       1.031873        28.0787 
 172   0.0000       1.043929        28.4068 
 173   0.0000       1.058998        28.8168 
 174   0.0000       1.063078        28.9278 
 175   0.0000       1.065495        28.9936 
 176   0.0000       1.084501        29.5108 
 177   0.0000       1.098842        29.9010 
 178   0.0000       1.103652        30.0319 
 179   0.0000       1.117123        30.3985 
 180   0.0000       1.122431        30.5429 
 181   0.0000       1.127362        30.6771 
 182   0.0000       1.152621        31.3644 
 183   0.0000       1.159691        31.5568 
 184   0.0000       1.169185        31.8151 
 185   0.0000       1.182415        32.1751 
 186   0.0000       1.186446        32.2848 
 187   0.0000       1.196625        32.5618 
 188   0.0000       1.211873        32.9767 
 189   0.0000       1.213664        33.0255 
 190   0.0000       1.224801        33.3285 
 191   0.0000       1.231099        33.4999 
 192   0.0000       1.238226        33.6938 
 193   0.0000       1.245322        33.8869 
 194   0.0000       1.250696        34.0332 
 195   0.0000       1.257304        34.2130 
 196   0.0000       1.275807        34.7165 
 197   0.0000       1.291379        35.1402 
 198   0.0000       1.307894        35.5896 
 199   0.0000       1.310933        35.6723 
 200   0.0000       1.314203        35.7613 
 201   0.0000       1.336648        36.3720 
 202   0.0000       1.348448        36.6931 
 203   0.0000       1.360759        37.0281 
 204   0.0000       1.368144        37.2291 
 205   0.0000       1.374720        37.4080 
 206   0.0000       1.380352        37.5613 
 207   0.0000       1.388228        37.7756 
 208   0.0000       1.393271        37.9128 
 209   0.0000       1.409542        38.3556 
 210   0.0000       1.411660        38.4132 
 211   0.0000       1.427262        38.8378 
 212   0.0000       1.436091        39.0780 
 213   0.0000       1.448867        39.4257 
 214   0.0000       1.464327        39.8464 
 215   0.0000       1.478277        40.2260 
 216   0.0000       1.495018        40.6815 
 217   0.0000       1.504416        40.9372 
 218   0.0000       1.516764        41.2732 
 219   0.0000       1.522503        41.4294 
 220   0.0000       1.539032        41.8792 
 221   0.0000       1.547945        42.1217 
 222   0.0000       1.550482        42.1908 
 223   0.0000       1.556987        42.3678 
 224   0.0000       1.561701        42.4961 
 225   0.0000       1.569497        42.7082 
 226   0.0000       1.577444        42.9244 
 227   0.0000       1.586730        43.1771 
 228   0.0000       1.603441        43.6318 
 229   0.0000       1.624199        44.1967 
 230   0.0000       1.638509        44.5861 
 231   0.0000       1.645338        44.7719 
 232   0.0000       1.653064        44.9821 
 233   0.0000       1.662433        45.2371 
 234   0.0000       1.666579        45.3499 
 235   0.0000       1.686151        45.8825 
 236   0.0000       1.699821        46.2545 
 237   0.0000       1.703090        46.3434 
 238   0.0000       1.734093        47.1871 
 239   0.0000       1.748221        47.5715 
 240   0.0000       1.766691        48.0741 
 241   0.0000       1.787883        48.6508 
 242   0.0000       1.799739        48.9734 
 243   0.0000       1.815068        49.3905 
 244   0.0000       1.828782        49.7637 
 245   0.0000       1.832938        49.8768 
 246   0.0000       1.847121        50.2627 
 247   0.0000       1.858828        50.5813 
 248   0.0000       1.877720        51.0954 
 249   0.0000       1.890814        51.4517 
 250   0.0000       1.909696        51.9655 
 251   0.0000       1.916766        52.1579 
 252   0.0000       1.918355        52.2011 
 253   0.0000       1.922083        52.3025 
 254   0.0000       1.972447        53.6730 
 255   0.0000       1.985669        54.0328 
 256   0.0000       1.986030        54.0426 
 257   0.0000       2.004264        54.5388 
 258   0.0000       2.013517        54.7906 
 259   0.0000       2.029243        55.2185 
 260   0.0000       2.037928        55.4548 
 261   0.0000       2.048221        55.7349 
 262   0.0000       2.074860        56.4598 
 263   0.0000       2.095758        57.0285 
 264   0.0000       2.099560        57.1319 
 265   0.0000       2.118265        57.6409 
 266   0.0000       2.160042        58.7777 
 267   0.0000       2.161435        58.8156 
 268   0.0000       2.201756        59.9128 
 269   0.0000       2.210044        60.1384 
 270   0.0000       2.223810        60.5130 
 271   0.0000       2.248750        61.1916 
 272   0.0000       2.264203        61.6121 
 273   0.0000       2.268911        61.7402 
 274   0.0000       2.303075        62.6698 
 275   0.0000       2.321636        63.1749 
 276   0.0000       2.329548        63.3902 
 277   0.0000       2.334035        63.5123 
 278   0.0000       2.355892        64.1071 
 279   0.0000       2.376024        64.6549 
 280   0.0000       2.395269        65.1786 
 281   0.0000       2.399495        65.2936 
 282   0.0000       2.417149        65.7740 
 283   0.0000       2.441977        66.4496 
 284   0.0000       2.455150        66.8080 
 285   0.0000       2.483412        67.5771 
 286   0.0000       2.502754        68.1034 
 287   0.0000       2.536375        69.0183 
 288   0.0000       2.542874        69.1951 
 289   0.0000       2.556249        69.5591 
 290   0.0000       2.587833        70.4185 
 291   0.0000       2.591505        70.5184 
 292   0.0000       2.623812        71.3975 
 293   0.0000       2.630926        71.5911 
 294   0.0000       2.646097        72.0039 
 295   0.0000       2.654996        72.2461 
 296   0.0000       2.663331        72.4729 
 297   0.0000       2.676481        72.8307 
 298   0.0000       2.680447        72.9387 
 299   0.0000       2.709821        73.7380 
 300   0.0000       2.728580        74.2484 
 301   0.0000       2.739480        74.5450 
 302   0.0000       2.747669        74.7679 
 303   0.0000       2.760301        75.1116 
 304   0.0000       2.775484        75.5247 
 305   0.0000       2.785234        75.7901 
 306   0.0000       2.789706        75.9118 
 307   0.0000       2.796426        76.0946 
 308   0.0000       2.816270        76.6346 
 309   0.0000       2.829022        76.9816 
 310   0.0000       2.831380        77.0458 
 311   0.0000       2.844346        77.3986 
 312   0.0000       2.847938        77.4963 
 313   0.0000       2.872870        78.1748 
 314   0.0000       2.876720        78.2795 
 315   0.0000       2.899365        78.8957 
 316   0.0000       2.903856        79.0179 
 317   0.0000       2.920684        79.4758 
 318   0.0000       2.930289        79.7372 
 319   0.0000       2.934881        79.8622 
 320   0.0000       2.945078        80.1396 
 321   0.0000       2.950706        80.2928 
 322   0.0000       2.956407        80.4479 
 323   0.0000       2.965326        80.6906 
 324   0.0000       2.978891        81.0597 
 325   0.0000       2.992632        81.4337 
 326   0.0000       2.998609        81.5963 
 327   0.0000       3.015369        82.0524 
 328   0.0000       3.021968        82.2319 
 329   0.0000       3.027683        82.3874 
 330   0.0000       3.043139        82.8080 
 331   0.0000       3.048201        82.9458 
 332   0.0000       3.051470        83.0347 
 333   0.0000       3.061827        83.3165 
 334   0.0000       3.066950        83.4560 
 335   0.0000       3.083951        83.9186 
 336   0.0000       3.090453        84.0955 
 337   0.0000       3.097083        84.2759 
 338   0.0000       3.108802        84.5948 
 339   0.0000       3.127869        85.1136 
 340   0.0000       3.139405        85.4276 
 341   0.0000       3.143209        85.5311 
 342   0.0000       3.157582        85.9222 
 343   0.0000       3.161478        86.0282 
 344   0.0000       3.170643        86.2776 
 345   0.0000       3.177968        86.4769 
 346   0.0000       3.185985        86.6951 
 347   0.0000       3.192994        86.8858 
 348   0.0000       3.202347        87.1403 
 349   0.0000       3.207706        87.2861 
 350   0.0000       3.229622        87.8825 
 351   0.0000       3.231885        87.9441 
 352   0.0000       3.243010        88.2468 
 353   0.0000       3.250278        88.4446 
 354   0.0000       3.259467        88.6946 
 355   0.0000       3.263675        88.8091 
 356   0.0000       3.277704        89.1909 
 357   0.0000       3.288652        89.4888 
 358   0.0000       3.292264        89.5871 
 359   0.0000       3.303990        89.9061 
 360   0.0000       3.314793        90.2001 
 361   0.0000       3.324031        90.4515 
 362   0.0000       3.330128        90.6174 
 363   0.0000       3.337767        90.8253 
 364   0.0000       3.356283        91.3291 
 365   0.0000       3.361425        91.4690 
 366   0.0000       3.380857        91.9978 
 367   0.0000       3.385090        92.1130 
 368   0.0000       3.390878        92.2705 
 369   0.0000       3.407756        92.7298 
 370   0.0000       3.418058        93.0101 
 371   0.0000       3.423975        93.1711 
 372   0.0000       3.425355        93.2086 
 373   0.0000       3.440011        93.6075 
 374   0.0000       3.448279        93.8325 
 375   0.0000       3.456746        94.0628 
 376   0.0000       3.463697        94.2520 
 377   0.0000       3.469199        94.4017 
 378   0.0000       3.507903        95.4549 
 379   0.0000       3.511501        95.5528 
 380   0.0000       3.513586        95.6095 
 381   0.0000       3.523131        95.8693 
 382   0.0000       3.530799        96.0779 
 383   0.0000       3.538073        96.2759 
 384   0.0000       3.552821        96.6772 
 385   0.0000       3.560657        96.8904 
 386   0.0000       3.575524        97.2950 
 387   0.0000       3.592145        97.7472 
 388   0.0000       3.622613        98.5763 
 389   0.0000       3.636194        98.9459 
 390   0.0000       3.646888        99.2369 
 391   0.0000       3.650067        99.3234 
 392   0.0000       3.664794        99.7241 
 393   0.0000       3.676579       100.0448 
 394   0.0000       3.678885       100.1075 
 395   0.0000       3.702469       100.7493 
 396   0.0000       3.718445       101.1840 
 397   0.0000       3.724850       101.3583 
 398   0.0000       3.731566       101.5411 
 399   0.0000       3.744833       101.9021 
 400   0.0000       3.756570       102.2215 
 401   0.0000       3.766773       102.4991 
 402   0.0000       3.781224       102.8923 
 403   0.0000       3.797644       103.3392 
 404   0.0000       3.814876       103.8080 
 405   0.0000       3.827754       104.1585 
 406   0.0000       3.849925       104.7618 
 407   0.0000       3.852911       104.8430 
 408   0.0000       3.867726       105.2462 
 409   0.0000       3.870040       105.3091 
 410   0.0000       3.882023       105.6352 
 411   0.0000       3.896715       106.0350 
 412   0.0000       3.907512       106.3288 
 413   0.0000       3.909750       106.3897 
 414   0.0000       3.914319       106.5140 
 415   0.0000       3.932284       107.0029 
 416   0.0000       3.944222       107.3277 
 417   0.0000       3.952649       107.5571 
 418   0.0000       3.958529       107.7171 
 419   0.0000       3.962719       107.8311 
 420   0.0000       3.971797       108.0781 
 421   0.0000       3.983615       108.3997 
 422   0.0000       3.998362       108.8010 
 423   0.0000       4.005890       109.0058 
 424   0.0000       4.028699       109.6265 
 425   0.0000       4.032665       109.7344 
 426   0.0000       4.058361       110.4336 
 427   0.0000       4.066958       110.6675 
 428   0.0000       4.077528       110.9552 
 429   0.0000       4.078730       110.9879 
 430   0.0000       4.093521       111.3904 
 431   0.0000       4.097166       111.4895 
 432   0.0000       4.124355       112.2294 
 433   0.0000       4.130543       112.3978 
 434   0.0000       4.141080       112.6845 
 435   0.0000       4.159827       113.1947 
 436   0.0000       4.172355       113.5355 
 437   0.0000       4.178690       113.7079 
 438   0.0000       4.204699       114.4157 
 439   0.0000       4.216872       114.7469 
 440   0.0000       4.225099       114.9708 
 441   0.0000       4.232238       115.1650 
 442   0.0000       4.248033       115.5949 
 443   0.0000       4.260946       115.9462 
 444   0.0000       4.270696       116.2115 
 445   0.0000       4.271068       116.2217 
 446   0.0000       4.288270       116.6898 
 447   0.0000       4.292102       116.7940 
 448   0.0000       4.306573       117.1878 
 449   0.0000       4.314349       117.3994 
 450   0.0000       4.329057       117.7996 
 451   0.0000       4.339868       118.0938 
 452   0.0000       4.354840       118.5012 
 453   0.0000       4.393682       119.5582 
 454   0.0000       4.402664       119.8026 
 455   0.0000       4.417086       120.1950 
 456   0.0000       4.459113       121.3386 
 457   0.0000       4.485892       122.0673 
 458   0.0000       4.486565       122.0856 
 459   0.0000       4.503265       122.5401 
 460   0.0000       4.517601       122.9302 
 461   0.0000       4.522502       123.0635 
 462   0.0000       4.527823       123.2083 
 463   0.0000       4.555337       123.9570 
 464   0.0000       4.557902       124.0268 
 465   0.0000       4.578250       124.5805 
 466   0.0000       4.585372       124.7743 
 467   0.0000       4.599083       125.1474 
 468   0.0000       4.605349       125.3179 
 469   0.0000       4.622220       125.7770 
 470   0.0000       4.647005       126.4514 
 471   0.0000       4.675537       127.2278 
 472   0.0000       4.687903       127.5643 
 473   0.0000       4.717175       128.3608 
 474   0.0000       4.721738       128.4850 
 475   0.0000       4.730431       128.7216 
 476   0.0000       4.753269       129.3430 
 477   0.0000       4.758667       129.4899 
 478   0.0000       4.783930       130.1773 
 479   0.0000       4.810926       130.9120 
 480   0.0000       4.828384       131.3870 
 481   0.0000       4.846218       131.8723 
[...]
 5 C  s               0.2       0.2       1.3       1.1       0.0       0.0
 6 C  s               0.0       0.0       0.1       0.5      10.6      13.0
 6 C  pz              0.2       0.2       0.0       0.0       0.0       0.0
 6 C  px              0.0       0.0       0.0       0.1       0.0       0.0
 6 C  py              0.2       0.2       0.0       0.0       0.0       0.0
 7 C  s               8.8      40.7       1.9       0.1       4.7      13.4
 7 C  px              0.1       0.0       0.0       0.0       0.1       0.0
 8 C  s               7.6      37.3       0.4       1.5       4.9      13.5
 8 C  px              0.2       0.0       0.0       0.1       0.1       0.0
 9 C  s               0.3       2.0      89.6       2.5       0.3       0.1
 9 C  py              0.0       0.0       0.3       0.0       0.0       0.0
 9 C  dxz             0.0       0.0       0.2       0.0       0.0       0.0
10 C  s              40.6       7.9       0.0       1.1       0.4      18.1
10 C  px              0.1       0.1       0.0       0.0       0.0       0.0
11 C  s              38.8       9.9       0.0       0.7       0.5      18.1
12 C  s               0.0       0.0       0.1       4.7       0.6      14.5
12 C  pz              0.3       0.0       0.0       0.0       0.0       0.0
12 C  py              0.4       0.0       0.0       0.0       0.0       0.0
12 C  dxz             0.2       0.0       0.0       0.0       0.0       0.0
12 C  dxy             0.2       0.0       0.0       0.0       0.0       0.0
13 C  s               0.0       0.0       0.3       0.5      75.5       5.7
13 C  px              0.0       0.0       0.0       0.0       0.3       0.0
14 H  s               0.0       0.0       0.0       0.7       0.0       0.0
14 H  pz              0.0       0.0       0.0       0.2       0.0       0.0
15 H  s               0.0       0.0       0.0       0.7       0.0       0.0
15 H  py              0.0       0.0       0.0       0.2       0.0       0.0
17 H  s               0.1       0.1       0.0       0.0       0.0       0.0
21 H  s               0.2       0.0       0.0       0.0       0.0       0.0
22 H  s               0.2       0.0       0.0       0.0       0.0       0.0

                    570       571       572       573   
                  32.07448  32.68144  43.89324  43.99543
                   0.00000   0.00000   0.00000   0.00000
                  --------  --------  --------  --------
 0 O  s               0.0       0.0       3.9      95.8
 1 O  s               0.0       0.0      96.0       3.9
 2 N  s               0.0      98.9       0.0       0.0
 2 N  pz              0.0       0.1       0.0       0.0
 3 N  s              99.5       0.0       0.0       0.0
13 C  s               0.1       0.0       0.0       0.0
13 C  px              0.1       0.0       0.0       0.0
19 H  s               0.0       0.2       0.0       0.0
19 H  py              0.0       0.1       0.0       0.0
20 H  s               0.0       0.2       0.0       0.0


                      *****************************
                      * MAYER POPULATION ANALYSIS *
                      *****************************

  NA   - Mulliken gross atomic population
  ZA   - Total nuclear charge
  QA   - Mulliken gross atomic charge
  VA   - Mayer's total valence
  BVA  - Mayer's bonded valence
  FA   - Mayer's free valence

  ATOM       NA         ZA         QA         VA         BVA        FA
  0 O      8.3047     8.0000    -0.3047     2.1833     2.1833     0.0000
  1 O      8.4329     8.0000    -0.4329     2.0502     2.0502    -0.0000
  2 N      7.4221     7.0000    -0.4221     3.0158     3.0158     0.0000
  3 N      7.0860     7.0000    -0.0860     3.1836     3.1836    -0.0000
  4 C      6.1185     6.0000    -0.1185     3.8107     3.8107     0.0000
  5 C      5.8667     6.0000     0.1333     3.7640     3.7640     0.0000
  6 C      6.0169     6.0000    -0.0169     3.6674     3.6674     0.0000
  7 C      6.1378     6.0000    -0.1378     3.8809     3.8809     0.0000
  8 C      6.1597     6.0000    -0.1597     3.9197     3.9197    -0.0000
  9 C      5.6560     6.0000     0.3440     4.2556     4.2556     0.0000
 10 C      6.2006     6.0000    -0.2006     3.9804     3.9804     0.0000
 11 C      6.2041     6.0000    -0.2041     3.9797     3.9797    -0.0000
 12 C      5.8514     6.0000     0.1486     3.6047     3.6047     0.0000
 13 C      6.1475     6.0000    -0.1475     4.0904     4.0904    -0.0000
 14 H      0.8972     1.0000     0.1028     1.0196     1.0196     0.0000
 15 H      0.8927     1.0000     0.1073     1.0056     1.0056    -0.0000
 16 H      0.8859     1.0000     0.1141     1.0262     1.0262    -0.0000
 17 H      0.8317     1.0000     0.1683     0.9965     0.9965     0.0000
 18 H      0.8320     1.0000     0.1680     0.9917     0.9917    -0.0000
 19 H      0.8335     1.0000     0.1665     1.0074     1.0074     0.0000
 20 H      0.8428     1.0000     0.1572     1.0269     1.0269     0.0000
 21 H      0.8241     1.0000     0.1759     0.9943     0.9943     0.0000
 22 H      0.8239     1.0000     0.1761     0.9943     0.9943    -0.0000
 23 H      0.7311     1.0000     0.2689     0.9897     0.9897     0.0000

  Mayer bond orders larger than 0.100000
B(  0-O ,  9-C ) :   1.2475 B(  0-O , 23-H ) :   0.9198 B(  1-O ,  9-C ) :   1.9664 
B(  2-N ,  5-C ) :   0.9812 B(  2-N , 19-H ) :   0.9822 B(  2-N , 20-H ) :   0.9824 
B(  3-N , 13-C ) :   3.0624 B(  4-C ,  5-C ) :   0.9137 B(  4-C ,  6-C ) :   0.8975 
B(  4-C , 14-H ) :   0.9894 B(  4-C , 15-H ) :   0.9792 B(  5-C ,  9-C ) :   0.9284 
B(  5-C , 16-H ) :   0.9744 B(  6-C ,  7-C ) :   1.3127 B(  6-C ,  8-C ) :   1.3341 
B(  7-C , 10-C ) :   1.4783 B(  7-C , 17-H ) :   0.9691 B(  8-C , 11-C ) :   1.4897 
B(  8-C , 18-H ) :   0.9683 B( 10-C , 12-C ) :   1.3189 B( 10-C , 21-H ) :   0.9679 
B( 11-C , 12-C ) :   1.3105 B( 11-C , 22-H ) :   0.9672 B( 12-C , 13-C ) :   0.9660 


-------
TIMINGS
-------

Total SCF time: 0 days 0 hours 2 min 47 sec 

Total time                  ....     167.834 sec
Sum of individual times     ....     158.595 sec  ( 94.5%)

SCF preparation             ....       0.684 sec  (  0.4%)
Fock matrix formation       ....     155.108 sec  ( 92.4%)
  Startup                   ....       0.025 sec  (  0.0% of F)
  Split-RI-J                ....      10.649 sec  (  6.9% of F)
  Chain of spheres X        ....     127.582 sec  ( 82.3% of F)
  XC integration            ....      15.227 sec  (  9.8% of F)
    XC Preparation          ....       0.000 sec  (  0.0% of XC)
    Basis function eval.    ....       3.702 sec  ( 24.3% of XC)
    Density eval.           ....       4.490 sec  ( 29.5% of XC)
    XC-Functional eval.     ....       0.280 sec  (  1.8% of XC)
    XC-Potential eval.      ....       6.414 sec  ( 42.1% of XC)
  CPCM terms                ....      10.666 sec  (  6.9% of F)
Diagonalization             ....       0.000 sec  (  0.0%)
Density matrix formation    ....       0.104 sec  (  0.1%)
Total Energy calculation    ....       0.055 sec  (  0.0%)
Population analysis         ....       1.225 sec  (  0.7%)
Orbital Transformation      ....       0.216 sec  (  0.1%)
Orbital Orthonormalization  ....       0.000 sec  (  0.0%)
DIIS solution               ....       0.923 sec  (  0.5%)
  MO trafo                  ....       0.112 sec  ( 12.2 % of DIIS)
  Orb grad                  ....       0.000 sec  (  0.0 % of DIIS)
  Energy W gradient         ....       0.000 sec  (  0.0 % of DIIS)
  DIIS error                ....       0.175 sec  ( 19.0 % of DIIS)
  DIIS work                 ....       0.508 sec  ( 55.0 % of DIIS)
  Form Q                    ....       0.000 sec  (  0.0 % of DIIS)
  Form QpQm                 ....       0.000 sec  (  0.0 % of DIIS)
  Exp/Cayley                ....       0.000 sec  (  0.0 % of DIIS)
  Orb update                ....       0.000 sec  (  0.0 % of DIIS)
  Wake-sleep                ....       0.018 sec  (  1.9 % of DIIS)
SOSCF solution              ....       0.280 sec  (  0.2%)
  MO trafo                  ....       0.157 sec  ( 56.1 % of SOSCF)
  Orb grad                  ....       0.004 sec  (  1.4 % of SOSCF)
  Rot update                ....       0.003 sec  (  1.1 % of SOSCF)
  Step                      ....       0.110 sec  ( 39.4 % of SOSCF)
Finished LeanSCF after 168.0 sec

Maximum memory used throughout the entire LEANSCF-calculation: 79.9 MB


-------------------------------------------------------------------------------
                          DFT DISPERSION CORRECTION                            
                                                                               
                              DFTD3 V3.1  Rev 1                                
                          USING Becke-Johnson damping                          
-------------------------------------------------------------------------------
The B3LYP functional is recognized
Active option DFTDOPT                   ...         4   

molecular C6(AA) [au] = 6703.809477 


            DFT-D V3
 parameters
 s6 scaling factor         :     1.0000 
 a1 scaling factor         :     0.3981 
 s8 scaling factor         :     1.9889 
 a2 scaling factor         :     4.4211 
 ad hoc parameters k1-k3   :    16.0000     1.3333    -4.0000 

 Edisp/kcal,au: -30.108431941105  -0.047980835308 
 E6   /kcal   : -14.193959204 
 E8   /kcal   : -15.914472737 
 % E8         :  52.857195514 

-------------------------   ----------------
Dispersion correction           -0.047980835
-------------------------   ----------------


-------------------------   --------------------
FINAL SINGLE POINT ENERGY      -647.001509828403
-------------------------   --------------------

                                *** OPTIMIZATION RUN DONE ***



           ************************************************************
           *        Program running with 2 parallel MPI-processes     *
           *              working on a common directory               *
           ************************************************************

------------------------------------------------------------------------------
                              ORCA PROPERTY CALCULATIONS
------------------------------------------------------------------------------

GBWName                                 ... /kaggle/working/Phe-CN-1/Phe-CN_InterFrag.gbw
Number of atoms                         ...     24
Number of basis functions               ...    574
Max core memory                         ...   3000 MB

Electric properties:
Dipole moment                           ... YES
Quadrupole moment                       ...  NO
Static polarizability (Dipole/Dipole)   ...  NO
Static polarizability (Dipole/Quad.)    ...  NO
Static polarizability (Quad./Quad.)     ...  NO
Static polarizability (Velocity)        ...  NO
Static hyperpolarizability              ...  NO

Atomic electric properties:
Dipole moment                           ...  NO
Quadrupole moment                       ...  NO
Static polarizability                   ...  NO

Choice of electric origin               ... Center of mass
Position of electric origin             ...    -0.240116    -0.085028    -0.072402

General magnetic properties:
Magnetizability                         ...  NO

EPR properties:
g-Tensor (aka g-matrix)                 ...  NO
Zero-Field splitting spin-orbit         ...  NO
Zero-field splitting spin-spin          ...  NO
Hyperfine couplings                     ...  NO (   0 nuclei)
Quadrupole couplings                    ...  NO (   0 nuclei)
Contact density                         ...  NO (   0 nuclei)

NMR properties:
Chemical shifts                         ...  NO (   0 nuclei)
Spin-rotation constants                 ...  NO (   0 nuclei)
Spin-spin couplings                     ...  NO (   0 nuclei,    0 pairs)

Choice of magnetic origin               ... GIAO
Position of magnetic origin             ...     0.000000     0.000000     0.000000

Properties with geometric perturbations:
SCF Hessian                             ...  NO
IR spectrum                             ...  NO
VCD spectrum                            ...  NO
X-ray spectroscopy properties:
SCF XES/XAS/RIXS spectra                ...  NO

SCF SOC stabilization energy            ...  NO
Diagonal Born-Oppenheimer correction    ...  NO

-------------
DIPOLE MOMENT
-------------

Method             : SCF
Type of density    : Electron Density
Multiplicity       :   1
Irrep              :   0
Energy             :  -646.9535289930950057 Eh
Basis              : AO
                                X                 Y                 Z
Electronic contribution:      7.413890110      -4.540170391      -1.399894484
Nuclear contribution   :     -8.974441741       6.108546006       1.818016869
                        -----------------------------------------
Total Dipole Moment    :     -1.560551631       1.568375615       0.418122385
                        -----------------------------------------
Magnitude (a.u.)       :      2.251654901
Magnitude (Debye)      :      5.723251923



--------------------
Rotational spectrum 
--------------------
 
Rotational constants in cm-1:             0.055283             0.011803             0.010985 
Rotational constants in MHz :          1657.354376           353.831698           329.332194 

Dipole components along the rotational axes: 
x,y,z [a.u.] :     1.661057    -1.491567    -0.293375 
x,y,z [Debye]:     4.222070    -3.791262    -0.745700 

 

Dipole moment calculation done in   0.0 sec 

Maximum memory used throughout the entire PROP-calculation: 51.2 MB

--------------------------------
SUGGESTED CITATIONS FOR THIS RUN
--------------------------------

Below you find a list of papers that are relevant to this ORCA run
We neither can nor want to force you to cite these papers, but we appreciate if you do
You receive ORCA, which is the product of decades of hard work by many enthusiastic individuals, for free
The only thing we kindly ask in return is that you cite our papers,
We deeply appreciate it, if you show your appreciation for ORCA by not just citing the generic ORCA reference.

Please note that relegating all ORCA citations to the supporting information does *not* help us.
SI sections are not indexed - citations you put there will not count into any citation statistics
But we need these citations in order to attract the funding resources that allow us to do what we are doing

Therefore, if you are a happy ORCA user, please consider citing a few of the papers listed below in the main body of your paper

In addition to the list printed below, the program has created the file /kaggle/working/Phe-CN-1/Phe-CN_InterFrag.bibtex that contains the list in bibtex format
You can import this file easily into all common literature databanks and citation aid programs

It goes without saying that in many instances, there are alternative algorithms to achieve similar
results as the ones you have gotten from ORCA. It is, of course, also the case that in some instances
ORCA just re-implements algorithms worked out by others. We are fully aware of that and we are also
fully appreciative of our colleagues work. Hence this citation list should not be read as indicating
that the listed papers, which are focused on our own work, are the only ones worth citing. It simply
meant to make it easier for users to cite ORCA specific papers. It is not a substitute for doing your
own literature research and citing the relevant literature in a scientifically appropriate manner.

List of essential papers. We consider these as the minimum necessary citations

  1. Neese, F.
     Software update: the ORCA program system, version 6.0
     WIRES Comput. Molec. Sci. 2025 15(1), e70019
     doi.org/10.1002/wcms.70019

List of papers to cite with high priority. The work reported in these papers was absolutely
necessary for this run to complete.
Our perspective: the developers of density functionals and basis sets usually get cited in chemistry papers
Good! But without the algorithms to do something with them, the functionals or basis sets would not do anything.
Hence, in our opinion, the algorithm design and method developments papers are equally worthy of getting cited

  1. Neese, F.
     An improvement of the resolution of the identity approximation for the formation of the Coulomb matrix
     J. Comp. Chem. 2003 24(14), 1740-1747
     doi.org/10.1002/jcc.10318
  2. Neese, F.; Wennmohs, F.; Hansen, A.; Becker, U.
     Efficient, approximate and parallel Hartree-Fock and hybrid DFT calculations. A 'chain-of-spheres' algorithm for the Hartree-Fock exchange
     Chem. Phys. 2009 356(1-3), 98-109
     doi.org/10.1016/j.chemphys.2008.10.036
  3. Grimme, S.; Antony, J.; Ehrlich, S.; Krieg, H.
     A consistent and accurate ab initio parametrization of density functional dispersion correction (DFT-D) for the 94 elements H-Pu
     J. Chem. Phys. 2010 132 , 154104
     doi.org/10.1063/1.3382344
  4. Grimme, S.; Ehrlich, S.; Goerigk, L.
     Effect of the damping function in dispersion corrected density functional theory
     J. Comput. Chem. 2011 32(7), 1456-1465
     doi.org/10.1002/jcc.21759
  5. Garcia-Rates, M.; Neese, F.
     Effect of the Solute Cavity on the Solvation Energy and its Derivatives within the Framework of the Gaussian Charge Scheme
     J. Comput. Chem. 2020 41 , 922-939
     doi.org/10.1002/jcc.26139
  6. Helmich-Paris, B.; de Souza, B.; Neese, F.; Izsák, R.
     An improved chain of spheres for exchange algorithm
     J. Chem. Phys. 2021 155(10), 104109
     doi.org/10.1063/5.0058766
  7. Neese, F.
     The SHARK Integral Generation and Digestion System
     J. Comp. Chem. 2022 44(3), 381
     doi.org/10.1002/jcc.26942

List of suggested additional citations. These are papers that are important in the 'surrounding' of 
of this run, or papers that preceded the highly important papers. If you like your results we are grateful for a citation.

  1. Izsak, R.; Neese, F.
     An overlap fitted chain of spheres exchange method
     J. Chem. Phys. 2011 135 , 144105
     doi.org/10.1063/1.3646921
  2. Izsak, R.; Hansen, A.; Neese, F.
     The resolution of identity and chain of spheres approximations for the LPNO-CCSD singles Fock term
     Molec. Phys. 2012 110 , 2413-2417
     doi.org/10.1080/00268976.2012.687466
  3. Neese, F.
     The ORCA program system
     WIRES Comput. Molec. Sci. 2012 2(1), 73-78
     doi.org/10.1002/wcms.81
  4. Izsak, R.; Neese, F.; Klopper, W.
     Robust fitting techniques in the chain of spheres approximation to the Fock exchange: The role of the complementary space
     J. Chem. Phys. 2013 139 , 
     doi.org/10.1063/1.4819264
  5. Neese, F.
     Software update: the ORCA program system, version 4.0
     WIRES Comput. Molec. Sci. 2018 8(1), 1-6
     doi.org/10.1002/wcms.1327
  6. Neese, F.; Wennmohs, F.; Becker, U.; Riplinger, C.
     The ORCA quantum chemistry program package
     J. Chem. Phys. 2020 152(22), 224108
     doi.org/10.1063/5.0004608
  7. Neese, F.
     Software update: The ORCA program system—Version 5.0
     WIRES Comput. Molec. Sci. 2022 12(1), e1606
     doi.org/10.1002/wcms.1606

List of optional additional citations

  1. Neese, F.
     Approximate second-order SCF convergence for spin unrestricted wavefunctions
     Chem. Phys. Lett. 2000 325(1-3), 93-98
     doi.org/10.1016/s0009-2614(00)00662-x

Timings for individual modules:

Sum of individual times          ...     3828.559 sec (=  63.809 min)
Startup calculation              ...       52.789 sec (=   0.880 min)   1.4 %
SCF iterations                   ...     2573.655 sec (=  42.894 min)  67.2 %
Property calculations            ...        0.522 sec (=   0.009 min)   0.0 %
SCF Gradient evaluation          ...     1201.489 sec (=  20.025 min)  31.4 %
Geometry relaxation              ...        0.105 sec (=   0.002 min)   0.0 %
                             ****ORCA TERMINATED NORMALLY****
TOTAL RUN TIME: 0 days 1 hours 3 minutes 53 seconds 796 msec
