
                                 *****************
                                 * O   R   C   A *
                                 *****************

                                            #,                                       
                                            ###                                      
                                            ####                                     
                                            #####                                    
                                            ######                                   
                                           ########,                                 
                                     ,,################,,,,,                         
                               ,,#################################,,                 
                          ,,##########################################,,             
                       ,#########################################, ''#####,          
                    ,#############################################,,   '####,        
                  ,##################################################,,,,####,       
                ,###########''''           ''''###############################       
              ,#####''   ,,,,##########,,,,          '''####'''          '####       
            ,##' ,,,,###########################,,,                        '##       
           ' ,,###''''                  '''############,,,                           
         ,,##''                                '''############,,,,        ,,,,,,###''
      ,#''                                            '''#######################'''  
     '                                                          ''''####''''         
             ,#######,   #######,   ,#######,      ##                                
            ,#'     '#,  ##    ##  ,#'     '#,    #''#        ,####,    ,#,          
            ##       ##  ##   ,#'  ##            #'  '#       #'       ,# #          
            ##       ##  #######   ##           ,######,      #####,      #          
            '#,     ,#'  ##    ##  '#,     ,#' ,#      #,     #,   #      #          
             '#######'   ##     ##  '#######'  #'      '#     '####' #    #          



                #########################################################
                #                        -***-                          #
                #          Department of theory and spectroscopy        #
                #                                                       #
                #                      Frank Neese                      #
                #                                                       #
                #     Directorship, Architecture, Infrastructure        #
                #                    SHARK, DRIVERS                     #
                #        Core code/Algorithms in most modules           #
                #                                                       #
                #        Max Planck Institute fuer Kohlenforschung      #
                #                Kaiser Wilhelm Platz 1                 #
                #                 D-45470 Muelheim/Ruhr                 #
                #                      Germany                          #
                #                                                       #
                #                  All rights reserved                  #
                #                        -***-                          #
                #########################################################


                         Program Version 6.1.1  -  RELEASE   -
                                (GIT: $487d211c$)
                          ($2025-11-21 10:33:24 +0100$)
                                                                         
                                  - NO-DMRG VERSION -                    
                                                                         


 With contributions from (in alphabetic order):
[Max-Planck-Institut fuer Kohlenforschung]                               
  Daniel Aravena         : Magnetic Suceptibility                        
  Michael Atanasov       : Ab Initio Ligand Field Theory (pilot matlab implementation)
  Alexander A. Auer      : GIAO ZORA, VPT2 properties, NMR spectrum      
  Ute Becker             : All parallelization in ORCA, NUMFREQ, NUMCALC 
  Giovanni Bistoni       : ED, misc. LED, open-shell LED, HFLD           
  Dmytro Bykov           : pre 5.0 version of the SCF Hessian            
  Marcos Casanova-Páez   : Triplet and SCS-CIS(D). UHF-(DLPNO)-IP/EA/STEOM-CCSD. UHF-CVS-IP/STEOM-CCSD   
  Vijay G. Chilkuri      : MRCI spin determinant printing, contributions to CSF-ICE 
  Pauline Colinet        : FMM embedding                                 
  Dipayan Datta          : RHF DLPNO-CCSD density                        
  Achintya Kumar Dutta   : EOM-CC, STEOM-CC                              
  Nicolas Foglia         : Exact transition moments, OPA infrastructure, MCD improvements    
  Dmitry Ganyushin       : Spin-Orbit,Spin-Spin,Magnetic field MRCI      
  Miquel Garcia-Rates    : C-PCM and meta-GGA Hessian, CCSD/C-PCM, Gaussian charge scheme 
  Tiago L. C. Gouveia    : GS-ROHF, GS-ROCIS                             
  Yang Guo               : DLPNO-NEVPT2, F12-NEVPT2, CIM, IAO-localization        
  Andreas Hansen         : Spin unrestricted coupled pair/coupled cluster methods 
  Ingolf Harden          : AUTO-CI MPn and infrastructure                
  Benjamin Helmich-Paris : MC-RPA, TRAH-(SCF,CASSCF), AVAS, COSX integrals, SCF dyn. polar., MC-PDFT, srDFT 
  Lee Huntington         : MR-EOM, pCC                                   
  Robert Izsak           : Overlap fitted RIJCOSX, COSX-SCS-MP3, EOM     
  Riya Kayal             : Wick's Theorem for AUTO-CI, AUTO-CI UHF-CCSDT 
  Emily Kempfer          : AUTO-CI RHF CISDT and CCSDT, approximate NEVPT4
  Christian Kollmar      : KDIIS, OOCD, Brueckner-CCSD(T), CCSD density, CASPT2, CASPT2-K, improved NEVPT2 
  Axel Koslowski         : Symmetry handling                             
  Simone Kossmann        : meta-GGA functionals, TD-DFT gradient, OOMP2, (MP2 Hessian; deprecated post 5.0) 
  Lucas Lang             : DCDCAS, Hyperfine gauge corrections, ICE-SOC+SSC
  Marvin Lechner         : AUTO-CI (C++ implementation), FIC-MRCC        
  Spencer Leger          : CASSCF response                               
  Dagmar Lenk            : GEPOL surface, SMD, ORCA-2-JSON               
  Dimitrios Liakos       : Extrapolation schemes; Compound Job, Property file
  Dimitrios Manganas     : Further ROCIS development; embedding schemes. LFT, Crystal Embedding 
  Dimitrios Pantazis     : SARC Basis sets                               
  Anastasios Papadopoulos: AUTO-CI, single reference methods and gradients 
  Taras Petrenko         : pre 6.0 DFT Hessian and TD-DFT gradient,  ECA, NRVS 
  Petra Pikulova         : Analytic Raman intensities                    
  Peter Pinski           : DLPNO-MP2, DLPNO-MP2 Gradient                 
  Shashank Vittal Rao    : ES-AILFT, MagRelax                            
  Christoph Reimann      : Effective Core Potentials                     
  Marius Retegan         : Local ZFS, SOC                                
  Christoph Riplinger    : Optimizer, TS searches, QM/MM, DLPNO-CCSD(T), (RO)-DLPNO pert. Triples 
  Michael Roemelt        : Original ROCIS implementation, recursive CI coupling coefficients
  Masaaki Saitow         : Open-shell DLPNO-CCSD energy and density      
  Barbara Sandhoefer     : DKH picture change effects                    
  Yorick L. A. Schmerwitz: GMF and freeze-and-release deltaSCF, NEB S-IDPP initial path                    
  Kantharuban Sivalingam : CASSCF convergence/infrastructure, NEVPT2, NEVPT3, NEVPT4(SD), FIC-MRCI and CEPA variants
  Bernardo de Souza      : ESD, SOC TD-DFT                               
  Georgi L. Stoychev     : AutoAux, RI-MP2 NMR, DLPNO-MP2 response, X2C  
  Van Anh Tran           : RI-MP2 g-tensors                              
  Willem Van den Heuvel  : Paramagnetic NMR                              
  Zikuan Wang            : NOTCH, Electric field optimization            
  Frank Wennmohs         : Technical directorship and infrastructure     
  Hang Xu                : AUTO-CI-Response properties                   
                                                                         
[FACCTs GmbH]                                                            
  Markus Bursch, Nicolas Foglia, Miquel Garcia-Rates, Ingolf Harden, Hagen Neugebauer, Anastasios Papadopoulos, 
  Christoph Riplinger, Bernardo de Souza, Georgi L. Stoychev                                                    
                                                                 
  APM, various basis sets, CI-OPT, improved COSX, DLPNO-Multilevel,           
  DOCKER, DRACO, updates on ESD, Fragmentator, GOAT, IRC, LR-CPCM, L-BFGS, MBIS, meta-GGA TD-DFT gradient, ML-optimized integration grids, 
  MM, NACMEs, nearIR, NEB, NEB-TS, NL-DFT gradient (VV10), 2- and 3-layer-ONIOM, interface openCOSMO-RS, QMMM,   
  Crystal-QMMM, RESP, rigid body optimization, SF, symmetry and pop. for TD-DFT, various functionals, SOLVATOR                                   
                                                                         
[Other institutions]                                                     
  V. Asgeirsson          : NEB                                           
  Christoph Bannwarth    : sTDA-DFT, sTD-DFT, PBEh-3c, B97-3c, D3        
  Giovanni Bistoni       : ETS/NOCV, ADLD/ADEX, COVALED                  
  Martin Brehm           : Molecular dynamics                            
  Ronald Cardenas        : ETS/NOCV                                      
  Martina Colucci        : COVALED                                       
  Sebastian Ehlert       : rSCAN, r2SCAN, r2SCAN-3c, D4, dhf basis sets  
  Marvin Friede          : D4 for Fr, Ra, Ac-Lr                          
  Lars Goerigk           : TD-DFT with DH, B97 family of functionals     
  Stefan Grimme          : VdW corrections, initial TS optimization, DFT functionals, gCP, sTDA/sTD-DF 
  Waldemar Hujo          : DFT-NL                                        
  H. Jonsson             : NEB                                           
  Holger Kruse           : gCP                                           
  Marcel Mueller         : wB97X-3c, vDZP basis set                      
  Hagen Neugebauer       : wr2SCAN, Native XTB                           
  Gianluca Regni         : ADLD/ADEX                                     
  Tobias Risthaus        : pre 6.0 range-separated hybrid DFT and stability analysis
  Lukas Wittmann         : regularized MP2, r2SCAN double-hybrids, wr2SCAN        
                                                                         
We gratefully acknowledge several colleagues who have allowed us to      
interface, adapt or use parts of their codes:                            
  Ed Valeev, F. Pavosevic, A. Kumar             : LibInt (2-el integral package), F12 methods 
  Garnet Chan, S. Sharma, J. Yang, R. Olivares  : DMRG                   
  Ulf Ekstrom                                   : XCFun DFT Library      
  Mihaly Kallay                                 : mrcc  (arbitrary order and MRCC methods)
  Frank Weinhold                                : gennbo (NPA and NBO analysis)           
  Simon Mueller                                 : openCOSMO-RS                            
  Christopher J. Cramer and Donald G. Truhlar   : smd solvation model                     
  S Lehtola, MJT Oliveira, MAL Marques          : LibXC Library                           
  Liviu Ungur et al                             : ANISO software                          


 Your calculation uses the libint2 library for the computation of 2-el integrals
 For citations please refer to: http://libint.valeyev.net

 Your ORCA version has been built with support for libXC version: 7.0.0
 For citations please refer to: https://libxc.gitlab.io

 This ORCA versions uses:
   CBLAS   interface :  Fast vector & matrix operations
   LAPACKE interface :  Fast linear algebra routines
   SCALAPACK package :  Parallel linear algebra routines
   Shared memory     :  Shared parallel matrices
   BLAS/LAPACK       :  OpenBLAS 0.3.29  USE64BITINT DYNAMIC_ARCH NO_AFFINITY SkylakeX SINGLE_THREADED
        Core in use  :  SkylakeX
   Copyright (c) 2011-2014, The OpenBLAS Project


  ***********************************
  * Starting time: Mon Mar 23 19:15:15 2026
  * Host name:     fd1d9f0ce89c
  * Process ID:    662
  * Working dir.:  /kaggle/working
  ***********************************

NOTE: MaxCore=3000 MB was set to SCF,MP2,MDCI,CIPSI,MRCI,RASCI and CIS
      => If you want to overwrite this, your respective input block should be placed after the MaxCore statement
Your calculation utilizes the atom-pairwise dispersion correction
with the Becke-Johnson damping scheme (D3BJ)


Warning: RI is on but no J-basis has been assigned. Assigning Def2/J (nothing to worry about!)
================================================================================

----- Orbital basis set information -----
Your calculation utilizes the basis: def2-TZVPP
   F. Weigend and R. Ahlrichs, Phys. Chem. Chem. Phys. 7, 3297 (2005).

----- AuxJ basis set information -----
Your calculation utilizes the auxiliary basis: def2/J
   H-Rn: F. Weigend, Phys. Chem. Chem. Phys. 8, 1057 (2006).
   Fr-Lr: K. Eichkorn, F. Weigend, O. Treutler, R. Ahlrichs; Theor. Chem. Acc. 97, 119 (1997).

================================================================================
                                        WARNINGS
                       Please study these warnings very carefully!
================================================================================


================================================================================
                                       INPUT FILE
================================================================================
NAME = /kaggle/working/Phe-CN-2/Phe-CN_InterFrag.inp
|  1> 
|  2> !RKS B3LYP def2-TZVPP TightSCF D3BJ # 6-31G(d,p)
|  3> 
|  4> %pal nprocs 2 end
|  5> %maxcore 3000
|  6> 
|  7> %elprop
|  8>   Polar 1      # polarizability via CP-SCF
|  9> end
| 10> 
| 11> %output
| 12>   PrintLevel Normal
| 13>   Print[ P_OrbEn ] 2
| 14> end
| 15> 
| 16> *xyz 0 1
| 17>   O     -1.704046   -1.253091   -1.402042
| 18>   O     -3.174494   -1.494718    0.275123
| 19>   N     -3.890393    1.196903   -0.173471
| 20>   N      4.872819   -0.989467   -0.402947
| 21>   C     -1.546478    1.176499    0.746440
| 22>   C     -2.522007    0.733678   -0.378080
| 23>   C     -0.130444    0.727231    0.530524
| 24>   C      0.368989   -0.396968    1.191334
| 25>   C      0.693417    1.398833   -0.376832
| 26>   C     -2.526151   -0.776642   -0.456980
| 27>   C      1.657762   -0.846890    0.958133
| 28>   C      1.983429    0.963854   -0.623730
| 29>   C      2.469735   -0.165604    0.045556
| 30>   C      3.796198   -0.620301   -0.201902
| 31>   H     -1.926570    0.792724    1.693890
| 32>   H     -1.593531    2.265618    0.777000
| 33>   H     -2.155166    1.122726   -1.325302
| 34>   H     -0.262010   -0.925113    1.893739
| 35>   H      0.317224    2.271849   -0.893605
| 36>   H     -3.870573    2.205228   -0.063853
| 37>   H     -4.234810    0.821564    0.705004
| 38>   H      2.039913   -1.716312    1.473763
| 39>   H      2.617545    1.486968   -1.325213
| 40>   H     -1.702859   -2.223968   -1.361252
| 41> 
| 42> *
| 43> 
| 44>                          ****END OF INPUT****
================================================================================

                       ****************************
                       * Single Point Calculation *
                       ****************************

---------------------------------
CARTESIAN COORDINATES (ANGSTROEM)
---------------------------------
  O     -1.704046   -1.253091   -1.402042
  O     -3.174494   -1.494718    0.275123
  N     -3.890393    1.196903   -0.173471
  N      4.872819   -0.989467   -0.402947
  C     -1.546478    1.176499    0.746440
  C     -2.522007    0.733678   -0.378080
  C     -0.130444    0.727231    0.530524
  C      0.368989   -0.396968    1.191334
  C      0.693417    1.398833   -0.376832
  C     -2.526151   -0.776642   -0.456980
  C      1.657762   -0.846890    0.958133
  C      1.983429    0.963854   -0.623730
  C      2.469735   -0.165604    0.045556
  C      3.796198   -0.620301   -0.201902
  H     -1.926570    0.792724    1.693890
  H     -1.593531    2.265618    0.777000
  H     -2.155166    1.122726   -1.325302
  H     -0.262010   -0.925113    1.893739
  H      0.317224    2.271849   -0.893605
  H     -3.870573    2.205228   -0.063853
  H     -4.234810    0.821564    0.705004
  H      2.039913   -1.716312    1.473763
  H      2.617545    1.486968   -1.325213
  H     -1.702859   -2.223968   -1.361252

----------------------------
CARTESIAN COORDINATES (A.U.)
----------------------------
  NO LB      ZA    FRAG     MASS         X           Y           Z
   0 O     8.0000    0    15.999   -3.220180   -2.367999   -2.649475
   1 O     8.0000    0    15.999   -5.998924   -2.824608    0.519907
   2 N     7.0000    0    14.007   -7.351777    2.261819   -0.327813
   3 N     7.0000    0    14.007    9.208293   -1.869822   -0.761459
   4 C     6.0000    0    12.011   -2.922420    2.223261    1.410567
   5 C     6.0000    0    12.011   -4.765903    1.386450   -0.714468
   6 C     6.0000    0    12.011   -0.246503    1.374267    1.002545
   7 C     6.0000    0    12.011    0.697288   -0.750161    2.251295
   8 C     6.0000    0    12.011    1.310368    2.643411   -0.712109
   9 C     6.0000    0    12.011   -4.773734   -1.467641   -0.863567
  10 C     6.0000    0    12.011    3.132716   -1.600390    1.810609
  11 C     6.0000    0    12.011    3.748138    1.821420   -1.178679
  12 C     6.0000    0    12.011    4.667123   -0.312946    0.086088
  13 C     6.0000    0    12.011    7.173775   -1.172199   -0.381539
  14 H     1.0000    0     1.008   -3.640690    1.498031    3.200988
  15 H     1.0000    0     1.008   -3.011337    4.281398    1.468317
  16 H     1.0000    0     1.008   -4.072674    2.121645   -2.504458
  17 H     1.0000    0     1.008   -0.495127   -1.748210    3.578648
  18 H     1.0000    0     1.008    0.599466    4.293172   -1.688669
  19 H     1.0000    0     1.008   -7.314323    4.167277   -0.120665
  20 H     1.0000    0     1.008   -8.002631    1.552531    1.332264
  21 H     1.0000    0     1.008    3.854877   -3.243360    2.785008
  22 H     1.0000    0     1.008    4.946443    2.809962   -2.504290
  23 H     1.0000    0     1.008   -3.217937   -4.202690   -2.572393

--------------------------------
INTERNAL COORDINATES (ANGSTROEM)
--------------------------------
 O      0   0   0     0.000000000000     0.00000000     0.00000000
 O      1   0   0     2.243542592655     0.00000000     0.00000000
 N      2   1   0     2.821094036483    86.82960909     0.00000000
 N      1   2   3     6.657540210966   122.65307624   108.49047849
 C      3   2   1     2.518052838676    72.41981014   291.75707910
 C      3   2   1     1.459082755879    58.76161737   326.75588280
 C      5   3   2     1.501204098061   145.88503913    61.88295371
 C      7   5   3     1.396397711682   120.67970367   259.25906224
 C      7   5   3     1.397530359048   120.37311275    76.74357125
 C      2   1   3     1.213242181114    30.10794249   342.31837458
 C      8   7   5     1.384827916390   120.97893844   177.51009315
 C      9   7   5     1.383580974497   120.95874749   182.52900367
 C     11   8   7     1.398659196321   119.46468854   359.90694129
 C      4   1   2     1.155774807314    28.17928526   305.44271817
 H      5   3   2     1.090602898212    89.76000179   293.93234803
 H      5   3   2     1.090563200631    87.82126520   185.72640592
 H      6   3   2     1.087731668597   108.95675929   134.08690574
 H      8   7   5     1.081882462678   119.44909657   357.67487199
 H      9   7   5     1.082003901580   119.52941499     2.54805649
 H      3   2   1     1.014459582216   157.84931304   268.15080909
 H      3   2   1     1.015490403911    66.16268048   193.93023122
 H     11   8   7     1.080651793033   120.67313232   179.87677331
 H     12   9   7     1.080661722160   120.71396372   180.08134803
 H      1   2   3     0.971734213763    82.05728919   195.56903237

---------------------------
INTERNAL COORDINATES (A.U.)
---------------------------
 O      0   0   0     0.000000000000     0.00000000     0.00000000
 O      1   0   0     4.239681069906     0.00000000     0.00000000
 N      2   1   0     5.331095126991    86.82960909     0.00000000
 N      1   2   3    12.580927724294   122.65307624   108.49047849
 C      3   2   1     4.758430255840    72.41981014   291.75707910
 C      3   2   1     2.757266815337    58.76161737   326.75588280
 C      5   3   2     2.836864616456   145.88503913    61.88295371
 C      7   5   3     2.638809249113   120.67970367   259.25906224
 C      7   5   3     2.640949642441   120.37311275    76.74357125
 C      2   1   3     2.292695456427    30.10794249   342.31837458
 C      8   7   5     2.616945504587   120.97893844   177.51009315
 C      9   7   5     2.614589125902   120.95874749   182.52900367
 C     11   8   7     2.643082835738   119.46468854   359.90694129
 C      4   1   2     2.184097858309    28.17928526   305.44271817
 H      5   3   2     2.060940798482    89.76000179   293.93234803
 H      5   3   2     2.060865780925    87.82126520   185.72640592
 H      6   3   2     2.055514960842   108.95675929   134.08690574
 H      8   7   5     2.044461563554   119.44909657   357.67487199
 H      9   7   5     2.044691049820   119.52941499     2.54805649
 H      3   2   1     1.917050784320   157.84931304   268.15080909
 H      3   2   1     1.918998755017    66.16268048   193.93023122
 H     11   8   7     2.042135934963   120.67313232   179.87677331
 H     12   9   7     2.042154698293   120.71396372   180.08134803
 H      1   2   3     1.836311538974    82.05728919   195.56903237

---------------------
BASIS SET INFORMATION
---------------------
There are 4 groups of distinct atoms

 Group   1 Type O   : 11s6p2d1f contracted to 5s3p2d1f pattern {62111/411/11/1}
 Group   2 Type N   : 11s6p2d1f contracted to 5s3p2d1f pattern {62111/411/11/1}
 Group   3 Type C   : 11s6p2d1f contracted to 5s3p2d1f pattern {62111/411/11/1}
 Group   4 Type H   : 5s2p1d contracted to 3s2p1d pattern {311/11/1}

Atom   0O    basis set group =>   1
Atom   1O    basis set group =>   1
Atom   2N    basis set group =>   2
Atom   3N    basis set group =>   2
Atom   4C    basis set group =>   3
Atom   5C    basis set group =>   3
Atom   6C    basis set group =>   3
Atom   7C    basis set group =>   3
Atom   8C    basis set group =>   3
Atom   9C    basis set group =>   3
Atom  10C    basis set group =>   3
Atom  11C    basis set group =>   3
Atom  12C    basis set group =>   3
Atom  13C    basis set group =>   3
Atom  14H    basis set group =>   4
Atom  15H    basis set group =>   4
Atom  16H    basis set group =>   4
Atom  17H    basis set group =>   4
Atom  18H    basis set group =>   4
Atom  19H    basis set group =>   4
Atom  20H    basis set group =>   4
Atom  21H    basis set group =>   4
Atom  22H    basis set group =>   4
Atom  23H    basis set group =>   4
---------------------------------
AUXILIARY/J BASIS SET INFORMATION
---------------------------------
There are 4 groups of distinct atoms

 Group   1 Type O   : 12s5p4d2f1g contracted to 6s4p3d1f1g pattern {711111/2111/211/2/1}
 Group   2 Type N   : 12s5p4d2f1g contracted to 6s4p3d1f1g pattern {711111/2111/211/2/1}
 Group   3 Type C   : 12s5p4d2f1g contracted to 6s4p3d1f1g pattern {711111/2111/211/2/1}
 Group   4 Type H   : 5s2p1d contracted to 3s1p1d pattern {311/2/1}

Atom   0O    basis set group =>   1
Atom   1O    basis set group =>   1
Atom   2N    basis set group =>   2
Atom   3N    basis set group =>   2
Atom   4C    basis set group =>   3
Atom   5C    basis set group =>   3
Atom   6C    basis set group =>   3
Atom   7C    basis set group =>   3
Atom   8C    basis set group =>   3
Atom   9C    basis set group =>   3
Atom  10C    basis set group =>   3
Atom  11C    basis set group =>   3
Atom  12C    basis set group =>   3
Atom  13C    basis set group =>   3
Atom  14H    basis set group =>   4
Atom  15H    basis set group =>   4
Atom  16H    basis set group =>   4
Atom  17H    basis set group =>   4
Atom  18H    basis set group =>   4
Atom  19H    basis set group =>   4
Atom  20H    basis set group =>   4
Atom  21H    basis set group =>   4
Atom  22H    basis set group =>   4
Atom  23H    basis set group =>   4


           ************************************************************
           *        Program running with 2 parallel MPI-processes     *
           *              working on a common directory               *
           ************************************************************
------------------------------------------------------------------------------
                             ORCA STARTUP CALCULATIONS
                           -- RI-GTO INTEGRALS CHOSEN --
------------------------------------------------------------------------------
------------------------------------------------------------------------------
                   ___                                                        
                  /   \      - P O W E R E D   B Y -                         
                 /     \                                                     
                 |  |  |   _    _      __       _____    __    __             
                 |  |  |  | |  | |    /  \     |  _  \  |  |  /  |          
                  \  \/   | |  | |   /    \    | | | |  |  | /  /          
                 / \  \   | |__| |  /  /\  \   | |_| |  |  |/  /          
                |  |  |   |  __  | /  /__\  \  |    /   |      \           
                |  |  |   | |  | | |   __   |  |    \   |  |\   \          
                \     /   | |  | | |  |  |  |  | |\  \  |  | \   \       
                 \___/    |_|  |_| |__|  |__|  |_| \__\ |__|  \__/        
                                                                              
                      - O R C A' S   B I G   F R I E N D -                    
                                      &                                       
                       - I N T E G R A L  F E E D E R -                       
                                                                              
 v1 FN, 2020, v2 2021, v3 2022-2024                                           
------------------------------------------------------------------------------


----------------------
SHARK INTEGRAL PACKAGE
----------------------

Number of atoms                             ...     24
Number of basis functions                   ...    574
Number of shells                            ...    214
Maximum angular momentum                    ...      3
Integral batch strategy                     ... SHARK/LIBINT Hybrid
RI-J (if used) integral strategy            ... SPLIT-RIJ (Revised 2003 algorithm where possible)
Printlevel                                  ...      1
Contraction scheme used                     ... SEGMENTED contraction
Prescreening option                         ... SCHWARTZ
   Thresh                                   ... 2.500e-11
   Tcut                                     ... 2.500e-12
   Tpresel                                  ... 2.500e-12 
Coulomb Range Separation                    ... NOT USED
Exchange Range Separation                   ... NOT USED
Multipole approximations                    ... NOT USED
Finite Nucleus Model                        ... NOT USED
CABS basis                                  ... NOT available
Auxiliary Coulomb fitting basis             ... AVAILABLE
   # of basis functions in Aux-J            ...    796
   # of shells in Aux-J                     ...    260
   Maximum angular momentum in Aux-J        ...      4
Auxiliary J/K fitting basis                 ... NOT available
Auxiliary Correlation fitting basis         ... NOT available
Auxiliary 'external' fitting basis          ... NOT available

Checking pre-screening integrals            ... done (  0.0 sec) Dimension = 214
   => SHARK Basis and OBASIS are compatible. Storing Pre-screening
Shell pair information
Shell pair cut-off parameter TPreSel        ...   2.5e-12
Total number of shell pairs                 ...     23005
Shell pairs after pre-screening             ...     18348
Total number of primitive shell pairs       ...     65318
Primitive shell pairs kept                  ...     37321
          la=0 lb=0:   3931 shell pairs
          la=1 lb=0:   5111 shell pairs
          la=1 lb=1:   1700 shell pairs
          la=2 lb=0:   2894 shell pairs
          la=2 lb=1:   1918 shell pairs
          la=2 lb=2:    548 shell pairs
          la=3 lb=0:   1059 shell pairs
          la=3 lb=1:    705 shell pairs
          la=3 lb=2:    401 shell pairs
          la=3 lb=3:     81 shell pairs

Checking whether 4 symmetric matrices of dimension 574 fit in memory
:Max Core in MB      =   3000.00
 MB in use           =     25.83
 MB left             =   2974.17
 MB needed           =      5.04
 Data fit in memory  = YES
Calculating RI/J V-Matrix + Cholesky decomp.... done (  0.0 sec)
Calculating Nuclear repulsion               ... done (  0.0 sec) ENN=    826.182547607694 Eh

Diagonalization of the overlap matrix:
Smallest eigenvalue                        ... 7.055e-06
Time for diagonalization                   ...    0.049 sec
Threshold for overlap eigenvalues          ... 1.000e-07
Number of eigenvalues below threshold      ... 0
Time for construction of square roots      ...    0.019 sec
Total time needed                          ...    0.071 sec

-------------------
DFT GRID GENERATION
-------------------

General Integration Accuracy     IntAcc      ... 4.388
Radial Grid Type                 RadialGrid  ... OptM3 with GC (2021)
Angular Grid (max. ang.)         AngularGrid ... 4 (Lebedev-302)
Angular grid pruning method      GridPruning ... 4 (adaptive)
Weight generation scheme         WeightScheme... mBecke (2022)
Basis function cutoff            BFCut       ... 1.0000e-11
Integration weight cutoff        WCut        ... 1.0000e-14
Partially contracted basis set               ... off
Rotationally invariant grid construction     ... off
Angular grids for H and He will be reduced by one unit

Total number of grid points                  ...   116073
Total number of batches                      ...     1824
Average number of points per batch           ...       63
Average number of grid points per atom       ...     4836

--------------------
COSX GRID GENERATION
--------------------

GRIDX 1
-------
General Integration Accuracy     IntAcc      ... 3.816
Radial Grid Type                 RadialGrid  ... OptM3 with GC (2021)
Angular Grid (max. ang.)         AngularGrid ... 1 (Lebedev-50)
Angular grid pruning method      GridPruning ... 4 (adaptive)
Weight generation scheme         WeightScheme... mBecke (2022)
Basis function cutoff            BFCut       ... 1.0000e-11
Integration weight cutoff        WCut        ... 1.0000e-14
Partially contracted basis set               ... on
Rotationally invariant grid construction     ... off
Angular grids for H and He will be reduced by one unit

Total number of grid points                  ...    14713
Total number of batches                      ...      128
Average number of points per batch           ...      114
Average number of grid points per atom       ...      613
UseSFitting                                  ... on

GRIDX 2
-------
General Integration Accuracy     IntAcc      ... 4.020
Radial Grid Type                 RadialGrid  ... OptM3 with GC (2021)
Angular Grid (max. ang.)         AngularGrid ... 2 (Lebedev-110)
Angular grid pruning method      GridPruning ... 4 (adaptive)
Weight generation scheme         WeightScheme... mBecke (2022)
Basis function cutoff            BFCut       ... 1.0000e-11
Integration weight cutoff        WCut        ... 1.0000e-14
Partially contracted basis set               ... on
Rotationally invariant grid construction     ... off
Angular grids for H and He will be reduced by one unit

Total number of grid points                  ...    32357
Total number of batches                      ...      267
Average number of points per batch           ...      121
Average number of grid points per atom       ...     1348
UseSFitting                                  ... on

GRIDX 3
-------
General Integration Accuracy     IntAcc      ... 4.338
Radial Grid Type                 RadialGrid  ... OptM3 with GC (2021)
Angular Grid (max. ang.)         AngularGrid ... 3 (Lebedev-194)
Angular grid pruning method      GridPruning ... 4 (adaptive)
Weight generation scheme         WeightScheme... mBecke (2022)
Basis function cutoff            BFCut       ... 1.0000e-11
Integration weight cutoff        WCut        ... 1.0000e-14
Partially contracted basis set               ... on
Rotationally invariant grid construction     ... off
Angular grids for H and He will be reduced by one unit

Total number of grid points                  ...    71137
Total number of batches                      ...      567
Average number of points per batch           ...      125
Average number of grid points per atom       ...     2964
UseSFitting                                  ... on
Grids setup in   3.3 sec
Initializing property integral containers    ... done (  0.0 sec)

SHARK setup successfully completed in   3.9 seconds

Maximum memory used throughout the entire STARTUP-calculation: 68.0 MB


           ************************************************************
           *        Program running with 2 parallel MPI-processes     *
           *              working on a common directory               *
           ************************************************************
-------------------------------------------------------------------------------
                                 ORCA GUESS
                   Start orbitals & Density for SCF / CASSCF
-------------------------------------------------------------------------------

------------
SCF SETTINGS
------------
Hamiltonian:
 Density Functional     Method          .... DFT(GTOs)
 Exchange Functional    Exchange        .... B88
   X-Alpha parameter    XAlpha          ....  0.666667
   Becke's b parameter  XBeta           ....  0.004200
 Correlation Functional Correlation     .... LYP
 LDA part of GGA corr.  LDAOpt          .... VWN-5
 Gradients option       PostSCFGGA      .... off
 Hybrid DFT is turned on
   Fraction HF Exchange ScalHFX         ....  0.200000
   Scaling of DF-GGA-X  ScalDFX         ....  0.720000
   Scaling of DF-GGA-C  ScalDFC         ....  0.810000
   Scaling of DF-LDA-C  ScalLDAC        ....  1.000000
   Perturbative correction              ....  0.000000
   NL short-range parameter             ....  4.800000
 RI-approximation to the Coulomb term is turned on
   Number of AuxJ basis functions       .... 796
   RIJ-COSX (HFX calculated with COS-X)).... on


General Settings:
 Integral files         IntName         .... /kaggle/working/Phe-CN-2/Phe-CN_InterFrag
 Hartree-Fock type      HFTyp           .... RHF
 Total Charge           Charge          ....    0
 Multiplicity           Mult            ....    1
 Number of Electrons    NEL             ....  100
 Basis Dimension        Dim             ....  574
 Nuclear Repulsion      ENuc            ....    826.1825476077 Eh

Convergence Acceleration:
 AO-DIIS                CNVDIIS         .... on
   Start iteration      DIISMaxIt       ....    12
   Startup error        DIISStart       ....  0.200000
   # of expansion vecs  DIISMaxEq       ....     5
   Bias factor          DIISBfac        ....   1.050
   Max. coefficient     DIISMaxC        ....  10.000
 MO-DIIS                CNVKDIIS        .... off
 Trust-Rad. Augm. Hess. CNVTRAH         .... auto
   Auto Start mean grad. ratio tolernc. ....  1.125000
   Auto Start start iteration           ....    50
   Auto Start num. interpolation iter.  ....    10
   Max. Number of Micro iterations      ....    24
   Max. Number of Macro iterations      .... Maxiter - #DIIS iter
   Number of Davidson start vectors     ....     2
   Converg. threshold    (grad. norm)   ....   1.000e-05
   Grad. Scal. Fac. for Micro threshold ....   0.100
   Minimum threshold for Micro iter.    ....   1.000e-02
   NR start threshold (gradient norm)   ....   1.000e-04
   Initial trust radius                 ....   0.400
   Minimum AH scaling param. (alpha)    ....   1.000
   Maximum AH scaling param. (alpha)    .... 1000.000
   Quad. conv. algorithm                .... NR
   White noise on init. David. guess    .... on
   Maximum white noise                  ....   0.010
   Pseudo random numbers                .... off
   Inactive MOs                         .... canonical
   Orbital update algorithm             .... Taylor
   Preconditioner                       .... Diag
   Full preconditioner red. dimension   ....   250
 SOSCF                 CNVSOSCF           .... on
   Start iteration     SOSCFMaxIt         ....   150
   Startup grad/error  SOSCFStart         ....  0.003300
   Hessian update      SOSCFHessUp        .... L-BFGS
   Autom. constraints  SOSCFAutoConstrain .... off
 Level Shifting         CNVShift        .... on
   Level shift para.    LevelShift      ....    0.2500
   Turn off err/grad.   ShiftErr        ....    0.0010
 Zerner damping         CNVZerner       .... off
 Static damping         CNVDamp         .... on
   Fraction old density DampFac         ....    0.7000
   Max. Damping (<1)    DampMax         ....    0.9800
   Min. Damping (>=0)   DampMin         ....    0.0000
   Turn off err/grad.   DampErr         ....    0.1000

SCF Procedure:
 Maximum # iterations   MaxIter         ....   125
 SCF integral mode      SCFMode         .... Direct
   Integral package                     .... SHARK and LIBINT hybrid scheme
 Reset frequency        DirectResetFreq ....    20
 Integral Threshold     Thresh          ....  2.500e-11 Eh
 Primitive CutOff       TCut            ....  2.500e-12 Eh

Convergence Tolerance:
 Convergence Check Mode ConvCheckMode   .... Total+1el-Energy
 Convergence forced     ConvForced      .... 0
 Energy Change          TolE            ....  1.000e-08 Eh
 1-El. energy change                    ....  1.000e-05 Eh
 Orbital Gradient       TolG            ....  1.000e-05
 Orbital Rotation angle TolX            ....  1.000e-05
 DIIS Error             TolErr          ....  5.000e-07

------------------------------
INITIAL GUESS: MODEL POTENTIAL
------------------------------
Loading Hartree-Fock densities                     ... done
Calculating cut-offs                               ... done
Initializing the effective Hamiltonian             ... done
Setting up the integral package (SHARK)            ... done
Starting the Coulomb interaction                   ... done (   0.8 sec)
Making the grid                                    ... done (   0.4 sec)
Mapping shells                                     ... done
Starting the XC term evaluation                    ... done (   0.7 sec)
  promolecular density results
     # of electrons  =     99.994637905
     EX              =    -83.899300196
     EC              =     -3.413673307
     EX+EC           =    -87.312973502
Transforming the Hamiltonian                       ... done (   0.0 sec)
Diagonalizing the Hamiltonian                      ... done (   0.1 sec)
Back transforming the eigenvectors                 ... done (   0.0 sec)
Now organizing SCF variables                       ... done
                      ------------------
                      INITIAL GUESS DONE (   2.0 sec)
                      ------------------
             **** ENERGY FILE WAS UPDATED (/kaggle/working/Phe-CN-2/Phe-CN_InterFrag.en.tmp) ****
Finished Guess after   2.4 sec
Maximum memory used throughout the entire GUESS-calculation: 49.9 MB


           ************************************************************
           *        Program running with 2 parallel MPI-processes     *
           *              working on a common directory               *
           ************************************************************

-------------------------------------------------------------------------------------------
                                      ORCA LEAN-SCF
                              memory conserving SCF solver
-------------------------------------------------------------------------------------------

----------------------------------------D-I-I-S--------------------------------------------
Iteration    Energy (Eh)           Delta-E    RMSDP     MaxDP     DIISErr   Damp  Time(sec)
-------------------------------------------------------------------------------------------
               ***  Starting incremental Fock matrix formation  ***
    1    -646.4580138245216858     0.00e+00  2.39e-03  1.24e-01  2.87e-01  0.700  24.1
    2    -646.6841136085283779    -2.26e-01  1.94e-03  1.20e-01  1.25e-01  0.700  11.8
                               ***Turning on AO-DIIS***
    3    -646.7641222848581037    -8.00e-02  6.71e-04  3.62e-02  3.82e-02  0.700  11.2
    4    -646.8152997464092095    -5.12e-02  9.39e-04  3.81e-02  2.00e-02  0.000  11.0
    5    -646.9287800549020631    -1.13e-01  4.37e-04  2.66e-02  9.19e-03  0.000  11.2
                              *** Initializing SOSCF ***
---------------------------------------S-O-S-C-F--------------------------------------
Iteration    Energy (Eh)           Delta-E    RMSDP     MaxDP     MaxGrad    Time(sec)
--------------------------------------------------------------------------------------
    6    -646.9294659499414593    -6.86e-04  1.56e-04  1.02e-02  2.22e-03    10.3
               *** Restarting incremental Fock matrix formation ***
    7    -646.9294445168027323     2.14e-05  9.74e-05  4.41e-03  8.49e-04    23.4
    8    -646.9294109321592714     3.36e-05  3.47e-05  1.48e-03  2.19e-03    17.0
    9    -646.9294560098746842    -4.51e-05  1.04e-05  5.75e-04  6.43e-05    15.5
   10    -646.9294556134668710     3.96e-07  5.82e-06  3.44e-04  1.49e-04    14.0
   11    -646.9294562568288711    -6.43e-07  2.64e-06  8.07e-05  5.46e-05    12.5
   12    -646.9294561511364918     1.06e-07  1.83e-06  1.04e-04  9.63e-05    11.9
   13    -646.9294562814925484    -1.30e-07  1.63e-06  5.57e-05  3.50e-06    11.5
   14    -646.9294562727125140     8.78e-09  1.68e-06  1.08e-04  6.01e-06     9.7
                 **** Energy Check signals convergence ****

               *****************************************************
               *                     SUCCESS                       *
               *           SCF CONVERGED AFTER  14 CYCLES          *
               *****************************************************

Recomputing exchange energy using gridx3       ... done (   41.506 sec)
Old exchange energy                            :    -17.019499689 Eh
New exchange energy                            :    -17.019497094 Eh
Exchange energy change after final integration :      0.000002596 Eh
Total energy after final integration           :   -646.929453714 Eh
             **** ENERGY FILE WAS UPDATED (/kaggle/working/Phe-CN-2/Phe-CN_InterFrag.en.tmp) ****

----------------
TOTAL SCF ENERGY
----------------

Total Energy       :       -646.92945371379403 Eh          -17603.84540 eV

Components:
Nuclear Repulsion  :        826.18254760769400 Eh           22481.57006 eV
Electronic Energy  :      -1473.11200391711259 Eh          -40085.41553 eV
One Electron Energy:      -2517.02020196863668 Eh          -68491.60174 eV
Two Electron Energy:       1043.90819805152410 Eh           28406.18621 eV

Virial components:
Potential Energy   :      -1291.11103861588367 Eh          -35132.91748 eV
Kinetic Energy     :        644.18158490208964 Eh           17529.07209 eV
Virial Ratio       :          2.00426567426966

DFT components:
N(Alpha)           :       49.999960486070 electrons
N(Beta)            :       49.999960486070 electrons
N(Total)           :       99.999920972140 electrons
E(X)               :      -67.687633939698 Eh       
E(C)               :       -4.029320098766 Eh       
E(XC)              :      -71.716954038464 Eh       

---------------
SCF CONVERGENCE
---------------

  Last Energy change         ...   -8.7800e-09  Tolerance :   1.0000e-08
  Last MAX-Density change    ...    1.0807e-04  Tolerance :   1.0000e-07
  Last RMS-Density change    ...    1.6847e-06  Tolerance :   5.0000e-09
  Last DIIS Error            ...    2.2244e-03  Tolerance :   5.0000e-07
  Last Orbital Gradient      ...    6.0126e-06  Tolerance :   1.0000e-05
  Last Orbital Rotation      ...    1.1577e-05  Tolerance :   1.0000e-05


----------------
ORBITAL ENERGIES
----------------

  NO   OCC          E(Eh)            E(eV) 
   0   2.0000     -19.190953      -522.2124 
   1   2.0000     -19.129117      -520.5297 
   2   2.0000     -14.316499      -389.5717 
   3   2.0000     -14.315724      -389.5507 
   4   2.0000     -10.317949      -280.7657 
   5   2.0000     -10.234866      -278.5049 
   6   2.0000     -10.228134      -278.3217 
   7   2.0000     -10.212632      -277.8998 
   8   2.0000     -10.211307      -277.8638 
   9   2.0000     -10.208269      -277.7811 
  10   2.0000     -10.207887      -277.7707 
  11   2.0000     -10.202080      -277.6127 
  12   2.0000     -10.201022      -277.5839 
  13   2.0000     -10.199870      -277.5526 
  14   2.0000      -1.126185       -30.6451 
  15   2.0000      -1.032953       -28.1081 
  16   2.0000      -0.917955       -24.9788 
  17   2.0000      -0.914115       -24.8743 
  18   2.0000      -0.889404       -24.2019 
  19   2.0000      -0.819271       -22.2935 
  20   2.0000      -0.779896       -21.2220 
  21   2.0000      -0.758674       -20.6446 
  22   2.0000      -0.705544       -19.1988 
  23   2.0000      -0.643935       -17.5224 
  24   2.0000      -0.641433       -17.4543 
  25   2.0000      -0.604035       -16.4366 
  26   2.0000      -0.573944       -15.6178 
  27   2.0000      -0.550631       -14.9834 
  28   2.0000      -0.504782       -13.7358 
  29   2.0000      -0.501498       -13.6465 
  30   2.0000      -0.496346       -13.5063 
  31   2.0000      -0.492093       -13.3905 
  32   2.0000      -0.465042       -12.6544 
  33   2.0000      -0.457328       -12.4445 
  34   2.0000      -0.454015       -12.3544 
  35   2.0000      -0.441450       -12.0125 
  36   2.0000      -0.424986       -11.5645 
  37   2.0000      -0.417352       -11.3567 
  38   2.0000      -0.406483       -11.0610 
  39   2.0000      -0.392796       -10.6885 
  40   2.0000      -0.386577       -10.5193 
  41   2.0000      -0.373466       -10.1625 
  42   2.0000      -0.365314        -9.9407 
  43   2.0000      -0.354624        -9.6498 
  44   2.0000      -0.339457        -9.2371 
  45   2.0000      -0.338604        -9.2139 
  46   2.0000      -0.298201        -8.1145 
  47   2.0000      -0.287279        -7.8173 
  48   2.0000      -0.280574        -7.6348 
  49   2.0000      -0.259352        -7.0573 
  50   0.0000      -0.063987        -1.7412 
  51   0.0000      -0.041943        -1.1413 
  52   0.0000      -0.015543        -0.4230 
  53   0.0000       0.014852         0.4041 
  54   0.0000       0.022792         0.6202 
  55   0.0000       0.029124         0.7925 
  56   0.0000       0.037163         1.0112 
  57   0.0000       0.046721         1.2713 
  58   0.0000       0.057770         1.5720 
  59   0.0000       0.065546         1.7836 
  60   0.0000       0.079103         2.1525 
  61   0.0000       0.083516         2.2726 
  62   0.0000       0.093773         2.5517 
  63   0.0000       0.111280         3.0281 
  64   0.0000       0.113587         3.0909 
  65   0.0000       0.124202         3.3797 
  66   0.0000       0.127972         3.4823 
  67   0.0000       0.132251         3.5987 
  68   0.0000       0.154065         4.1923 
  69   0.0000       0.166735         4.5371 
  70   0.0000       0.173628         4.7247 
  71   0.0000       0.178888         4.8678 
  72   0.0000       0.189932         5.1683 
  73   0.0000       0.193232         5.2581 
  74   0.0000       0.197188         5.3658 
  75   0.0000       0.206577         5.6213 
  76   0.0000       0.217002         5.9049 
  77   0.0000       0.226001         6.1498 
  78   0.0000       0.230393         6.2693 
  79   0.0000       0.237826         6.4716 
  80   0.0000       0.243163         6.6168 
  81   0.0000       0.249104         6.7785 
  82   0.0000       0.258021         7.0211 
  83   0.0000       0.270429         7.3587 
  84   0.0000       0.279387         7.6025 
  85   0.0000       0.285764         7.7760 
  86   0.0000       0.287916         7.8346 
  87   0.0000       0.292883         7.9697 
  88   0.0000       0.300642         8.1809 
  89   0.0000       0.314311         8.5528 
  90   0.0000       0.318230         8.6595 
  91   0.0000       0.329676         8.9709 
  92   0.0000       0.331232         9.0133 
  93   0.0000       0.332843         9.0571 
  94   0.0000       0.336482         9.1561 
  95   0.0000       0.346405         9.4262 
  96   0.0000       0.364320         9.9137 
  97   0.0000       0.366439         9.9713 
  98   0.0000       0.375569        10.2197 
  99   0.0000       0.380710        10.3596 
 100   0.0000       0.385222        10.4824 
 101   0.0000       0.391353        10.6493 
 102   0.0000       0.399336        10.8665 
 103   0.0000       0.403220        10.9722 
 104   0.0000       0.411077        11.1860 
 105   0.0000       0.414684        11.2841 
 106   0.0000       0.424670        11.5559 
 107   0.0000       0.426551        11.6070 
 108   0.0000       0.438927        11.9438 
 109   0.0000       0.444336        12.0910 
 110   0.0000       0.450150        12.2492 
 111   0.0000       0.452160        12.3039 
 112   0.0000       0.459548        12.5049 
 113   0.0000       0.467826        12.7302 
 114   0.0000       0.477380        12.9902 
 115   0.0000       0.482240        13.1224 
 116   0.0000       0.483377        13.1534 
 117   0.0000       0.488906        13.3038 
 118   0.0000       0.502091        13.6626 
 119   0.0000       0.511076        13.9071 
 120   0.0000       0.512904        13.9568 
 121   0.0000       0.533011        14.5040 
 122   0.0000       0.535115        14.5612 
 123   0.0000       0.543486        14.7890 
 124   0.0000       0.551563        15.0088 
 125   0.0000       0.558891        15.2082 
 126   0.0000       0.568813        15.4782 
 127   0.0000       0.586333        15.9549 
 128   0.0000       0.596069        16.2199 
 129   0.0000       0.603767        16.4293 
 130   0.0000       0.611528        16.6405 
 131   0.0000       0.620161        16.8755 
 132   0.0000       0.631140        17.1742 
 133   0.0000       0.636806        17.3284 
 134   0.0000       0.644918        17.5491 
 135   0.0000       0.645667        17.5695 
 136   0.0000       0.653575        17.7847 
 137   0.0000       0.659230        17.9386 
 138   0.0000       0.670722        18.2513 
 139   0.0000       0.676775        18.4160 
 140   0.0000       0.682913        18.5830 
 141   0.0000       0.710245        19.3268 
 142   0.0000       0.719543        19.5798 
 143   0.0000       0.731887        19.9156 
 144   0.0000       0.741047        20.1649 
 145   0.0000       0.746895        20.3241 
 146   0.0000       0.771998        21.0071 
 147   0.0000       0.773253        21.0413 
 148   0.0000       0.786903        21.4127 
 149   0.0000       0.793924        21.6038 
 150   0.0000       0.801573        21.8119 
 151   0.0000       0.805983        21.9319 
 152   0.0000       0.830353        22.5951 
 153   0.0000       0.837659        22.7939 
 154   0.0000       0.842212        22.9178 
 155   0.0000       0.857454        23.3325 
 156   0.0000       0.859929        23.3999 
 157   0.0000       0.869893        23.6710 
 158   0.0000       0.881293        23.9812 
 159   0.0000       0.900251        24.4971 
 160   0.0000       0.910330        24.7713 
 161   0.0000       0.917947        24.9786 
 162   0.0000       0.938535        25.5388 
 163   0.0000       0.940624        25.5957 
 164   0.0000       0.958259        26.0755 
 165   0.0000       0.966544        26.3010 
 166   0.0000       0.980624        26.6841 
 167   0.0000       0.986542        26.8452 
 168   0.0000       0.992909        27.0184 
 169   0.0000       0.994817        27.0704 
 170   0.0000       1.005999        27.3746 
 171   0.0000       1.018008        27.7014 
 172   0.0000       1.025278        27.8992 
 173   0.0000       1.034325        28.1454 
 174   0.0000       1.043556        28.3966 
 175   0.0000       1.045954        28.4618 
 176   0.0000       1.065548        28.9950 
 177   0.0000       1.077899        29.3311 
 178   0.0000       1.090943        29.6861 
 179   0.0000       1.094358        29.7790 
 180   0.0000       1.115352        30.3503 
 181   0.0000       1.126765        30.6608 
 182   0.0000       1.135877        30.9088 
 183   0.0000       1.148402        31.2496 
 184   0.0000       1.159238        31.5445 
 185   0.0000       1.164774        31.6951 
 186   0.0000       1.177045        32.0290 
 187   0.0000       1.182774        32.1849 
 188   0.0000       1.186006        32.2729 
 189   0.0000       1.208563        32.8867 
 190   0.0000       1.213292        33.0154 
 191   0.0000       1.218397        33.1543 
 192   0.0000       1.225044        33.3352 
 193   0.0000       1.230201        33.4755 
 194   0.0000       1.235425        33.6176 
 195   0.0000       1.251228        34.0476 
 196   0.0000       1.256872        34.2012 
 197   0.0000       1.274863        34.6908 
 198   0.0000       1.275964        34.7207 
 199   0.0000       1.288744        35.0685 
 200   0.0000       1.313959        35.7546 
 201   0.0000       1.316072        35.8121 
 202   0.0000       1.332311        36.2540 
 203   0.0000       1.347381        36.6641 
 204   0.0000       1.350496        36.7489 
 205   0.0000       1.352387        36.8003 
 206   0.0000       1.358218        36.9590 
 207   0.0000       1.365076        37.1456 
 208   0.0000       1.380756        37.5723 
 209   0.0000       1.392955        37.9042 
 210   0.0000       1.399763        38.0895 
 211   0.0000       1.419505        38.6267 
 212   0.0000       1.432789        38.9882 
 213   0.0000       1.437657        39.1206 
 214   0.0000       1.441723        39.2313 
 215   0.0000       1.459319        39.7101 
 216   0.0000       1.484495        40.3952 
 217   0.0000       1.490118        40.5482 
 218   0.0000       1.507006        41.0077 
 219   0.0000       1.518055        41.3084 
 220   0.0000       1.528520        41.5931 
 221   0.0000       1.540401        41.9164 
 222   0.0000       1.545281        42.0492 
 223   0.0000       1.548429        42.1349 
 224   0.0000       1.556366        42.3509 
 225   0.0000       1.562381        42.5146 
 226   0.0000       1.564357        42.5683 
 227   0.0000       1.579995        42.9938 
 228   0.0000       1.590915        43.2910 
 229   0.0000       1.592691        43.3393 
 230   0.0000       1.617890        44.0250 
 231   0.0000       1.633850        44.4593 
 232   0.0000       1.639075        44.6015 
 233   0.0000       1.645899        44.7872 
 234   0.0000       1.649384        44.8820 
 235   0.0000       1.662655        45.2431 
 236   0.0000       1.668334        45.3977 
 237   0.0000       1.697000        46.1777 
 238   0.0000       1.722298        46.8661 
 239   0.0000       1.738225        47.2995 
 240   0.0000       1.749501        47.6063 
 241   0.0000       1.754706        47.7480 
 242   0.0000       1.771957        48.2174 
 243   0.0000       1.782899        48.5151 
 244   0.0000       1.821853        49.5752 
 245   0.0000       1.840415        50.0802 
 246   0.0000       1.853151        50.4268 
 247   0.0000       1.869046        50.8593 
 248   0.0000       1.872089        50.9421 
 249   0.0000       1.877759        51.0964 
 250   0.0000       1.897439        51.6319 
 251   0.0000       1.899978        51.7010 
 252   0.0000       1.917153        52.1684 
 253   0.0000       1.926245        52.4158 
 254   0.0000       1.948345        53.0172 
 255   0.0000       1.960033        53.3352 
 256   0.0000       1.984649        54.0051 
 257   0.0000       2.000764        54.4436 
 258   0.0000       2.011024        54.7228 
 259   0.0000       2.019632        54.9570 
 260   0.0000       2.038793        55.4784 
 261   0.0000       2.044355        55.6297 
 262   0.0000       2.058475        56.0140 
 263   0.0000       2.062584        56.1258 
 264   0.0000       2.089275        56.8521 
 265   0.0000       2.108819        57.3839 
 266   0.0000       2.125300        57.8324 
 267   0.0000       2.138832        58.2006 
 268   0.0000       2.174849        59.1806 
 269   0.0000       2.195033        59.7299 
 270   0.0000       2.200576        59.8807 
 271   0.0000       2.221825        60.4589 
 272   0.0000       2.269886        61.7667 
 273   0.0000       2.272280        61.8319 
 274   0.0000       2.278016        61.9880 
 275   0.0000       2.296271        62.4847 
 276   0.0000       2.302941        62.6662 
 277   0.0000       2.333710        63.5035 
 278   0.0000       2.345838        63.8335 
 279   0.0000       2.357433        64.1490 
 280   0.0000       2.379573        64.7515 
 281   0.0000       2.398886        65.2770 
 282   0.0000       2.419567        65.8398 
 283   0.0000       2.430999        66.1508 
 284   0.0000       2.452573        66.7379 
 285   0.0000       2.476231        67.3817 
 286   0.0000       2.502449        68.0951 
 287   0.0000       2.527905        68.7878 
 288   0.0000       2.532759        68.9199 
 289   0.0000       2.556049        69.5536 
 290   0.0000       2.574614        70.0588 
 291   0.0000       2.589748        70.4706 
 292   0.0000       2.607232        70.9464 
 293   0.0000       2.622506        71.3620 
 294   0.0000       2.632180        71.6253 
 295   0.0000       2.642012        71.8928 
 296   0.0000       2.645268        71.9814 
 297   0.0000       2.664778        72.5123 
 298   0.0000       2.669496        72.6407 
 299   0.0000       2.689503        73.1851 
 300   0.0000       2.710053        73.7443 
 301   0.0000       2.721773        74.0632 
 302   0.0000       2.733960        74.3948 
 303   0.0000       2.743093        74.6434 
 304   0.0000       2.768519        75.3352 
 305   0.0000       2.774273        75.4918 
 306   0.0000       2.783814        75.7514 
 307   0.0000       2.792027        75.9749 
 308   0.0000       2.796492        76.0964 
 309   0.0000       2.804167        76.3053 
 310   0.0000       2.818210        76.6874 
 311   0.0000       2.834459        77.1295 
 312   0.0000       2.852525        77.6211 
 313   0.0000       2.858366        77.7801 
 314   0.0000       2.873699        78.1973 
 315   0.0000       2.880621        78.3857 
 316   0.0000       2.890433        78.6527 
 317   0.0000       2.905503        79.0628 
 318   0.0000       2.911578        79.2281 
 319   0.0000       2.920851        79.4804 
 320   0.0000       2.930198        79.7348 
 321   0.0000       2.934158        79.8425 
 322   0.0000       2.947381        80.2023 
 323   0.0000       2.959591        80.5346 
 324   0.0000       2.970964        80.8440 
 325   0.0000       2.981933        81.1425 
 326   0.0000       2.993871        81.4674 
 327   0.0000       3.002947        81.7143 
 328   0.0000       3.018701        82.1430 
 329   0.0000       3.019231        82.1575 
 330   0.0000       3.030657        82.4684 
 331   0.0000       3.041416        82.7611 
 332   0.0000       3.045243        82.8653 
 333   0.0000       3.058796        83.2341 
 334   0.0000       3.061037        83.2951 
 335   0.0000       3.071066        83.5680 
 336   0.0000       3.077433        83.7412 
 337   0.0000       3.087850        84.0247 
 338   0.0000       3.094793        84.2136 
 339   0.0000       3.110693        84.6462 
 340   0.0000       3.111488        84.6679 
 341   0.0000       3.131695        85.2178 
 342   0.0000       3.147626        85.6513 
 343   0.0000       3.151277        85.7506 
 344   0.0000       3.160152        85.9921 
 345   0.0000       3.161590        86.0312 
 346   0.0000       3.169454        86.2452 
 347   0.0000       3.188121        86.7532 
 348   0.0000       3.194420        86.9246 
 349   0.0000       3.197410        87.0060 
 350   0.0000       3.210820        87.3708 
 351   0.0000       3.222445        87.6872 
 352   0.0000       3.234175        88.0064 
 353   0.0000       3.245654        88.3187 
 354   0.0000       3.251218        88.4701 
 355   0.0000       3.254933        88.5712 
 356   0.0000       3.268822        88.9492 
 357   0.0000       3.282038        89.3088 
 358   0.0000       3.286430        89.4283 
 359   0.0000       3.297583        89.7318 
 360   0.0000       3.306653        89.9786 
 361   0.0000       3.323065        90.4252 
 362   0.0000       3.323358        90.4332 
 363   0.0000       3.334917        90.7477 
 364   0.0000       3.344511        91.0088 
 365   0.0000       3.355621        91.3111 
 366   0.0000       3.366285        91.6013 
 367   0.0000       3.378070        91.9220 
 368   0.0000       3.389798        92.2411 
 369   0.0000       3.393519        92.3423 
 370   0.0000       3.397585        92.4530 
 371   0.0000       3.406614        92.6987 
 372   0.0000       3.418405        93.0195 
 373   0.0000       3.424300        93.1799 
 374   0.0000       3.431881        93.3862 
 375   0.0000       3.442940        93.6872 
 376   0.0000       3.446886        93.7945 
 377   0.0000       3.474326        94.5412 
 378   0.0000       3.482327        94.7589 
 379   0.0000       3.496976        95.1575 
 380   0.0000       3.502729        95.3141 
 381   0.0000       3.510433        95.5237 
 382   0.0000       3.520153        95.7882 
 383   0.0000       3.538233        96.2802 
 384   0.0000       3.545799        96.4861 
 385   0.0000       3.554157        96.7135 
 386   0.0000       3.574257        97.2605 
 387   0.0000       3.588186        97.6395 
 388   0.0000       3.598927        97.9318 
 389   0.0000       3.615083        98.3714 
 390   0.0000       3.624969        98.6404 
 391   0.0000       3.641575        99.0923 
 392   0.0000       3.655567        99.4730 
 393   0.0000       3.663103        99.6781 
 394   0.0000       3.673828        99.9699 
 395   0.0000       3.682351       100.2019 
 396   0.0000       3.698487       100.6410 
 397   0.0000       3.702390       100.7471 
 398   0.0000       3.708550       100.9148 
 399   0.0000       3.725617       101.3792 
 400   0.0000       3.740227       101.7767 
 401   0.0000       3.746415       101.9451 
 402   0.0000       3.756487       102.2192 
 403   0.0000       3.766297       102.4862 
 404   0.0000       3.784739       102.9880 
 405   0.0000       3.813506       103.7708 
 406   0.0000       3.828257       104.1722 
 407   0.0000       3.840937       104.5172 
 408   0.0000       3.843447       104.5855 
 409   0.0000       3.859209       105.0144 
 410   0.0000       3.867551       105.2414 
 411   0.0000       3.871857       105.3586 
 412   0.0000       3.884076       105.6911 
 413   0.0000       3.889432       105.8368 
 414   0.0000       3.896277       106.0231 
 415   0.0000       3.903489       106.2193 
 416   0.0000       3.920945       106.6944 
 417   0.0000       3.928557       106.9015 
 418   0.0000       3.940693       107.2317 
 419   0.0000       3.966811       107.9424 
 420   0.0000       3.971848       108.0795 
 421   0.0000       3.978036       108.2479 
 422   0.0000       3.987684       108.5104 
 423   0.0000       4.001963       108.8990 
 424   0.0000       4.007853       109.0592 
 425   0.0000       4.033841       109.7664 
 426   0.0000       4.046933       110.1227 
 427   0.0000       4.058289       110.4317 
 428   0.0000       4.060907       110.5029 
 429   0.0000       4.073187       110.8371 
 430   0.0000       4.076992       110.9406 
 431   0.0000       4.085020       111.1591 
 432   0.0000       4.097545       111.4999 
 433   0.0000       4.105941       111.7283 
 434   0.0000       4.123152       112.1967 
 435   0.0000       4.143950       112.7626 
 436   0.0000       4.150356       112.9369 
 437   0.0000       4.165762       113.3562 
 438   0.0000       4.187343       113.9434 
 439   0.0000       4.191628       114.0600 
 440   0.0000       4.197222       114.2122 
 441   0.0000       4.207112       114.4813 
 442   0.0000       4.213969       114.6679 
 443   0.0000       4.230808       115.1261 
 444   0.0000       4.244384       115.4956 
 445   0.0000       4.251634       115.6929 
 446   0.0000       4.257127       115.8423 
 447   0.0000       4.278835       116.4330 
 448   0.0000       4.283684       116.5650 
 449   0.0000       4.310780       117.3023 
 450   0.0000       4.321514       117.5944 
 451   0.0000       4.342682       118.1704 
 452   0.0000       4.355522       118.5198 
 453   0.0000       4.375014       119.0502 
 454   0.0000       4.391149       119.4892 
 455   0.0000       4.399015       119.7033 
 456   0.0000       4.438863       120.7876 
 457   0.0000       4.453886       121.1964 
 458   0.0000       4.480893       121.9313 
 459   0.0000       4.489384       122.1624 
 460   0.0000       4.507759       122.6624 
 461   0.0000       4.526348       123.1682 
 462   0.0000       4.534758       123.3970 
 463   0.0000       4.538491       123.4986 
 464   0.0000       4.543939       123.6469 
 465   0.0000       4.551850       123.8621 
 466   0.0000       4.575381       124.5025 
 467   0.0000       4.592711       124.9740 
 468   0.0000       4.609917       125.4422 
 469   0.0000       4.623993       125.8252 
 470   0.0000       4.630005       125.9889 
 471   0.0000       4.639742       126.2538 
 472   0.0000       4.650465       126.5456 
 473   0.0000       4.684223       127.4642 
 474   0.0000       4.700323       127.9023 
 475   0.0000       4.717612       128.3727 
 476   0.0000       4.725805       128.5957 
 477   0.0000       4.742940       129.0620 
 478   0.0000       4.788670       130.3063 
 479   0.0000       4.798987       130.5871 
 480   0.0000       4.809925       130.8847 
 481   0.0000       4.847826       131.9161 
 482   0.0000       4.859831       132.2427 
 483   0.0000       4.876196       132.6880 
 484   0.0000       4.889993       133.0635 
 485   0.0000       4.898191       133.2866 
 486   0.0000       4.911923       133.6602 
 487   0.0000       4.919568       133.8682 
 488   0.0000       4.941492       134.4648 
 489   0.0000       4.958835       134.9368 
 490   0.0000       4.974617       135.3662 
 491   0.0000       4.986051       135.6773 
 492   0.0000       4.996157       135.9523 
 493   0.0000       5.014742       136.4581 
 494   0.0000       5.025939       136.7628 
 495   0.0000       5.044201       137.2597 
 496   0.0000       5.107578       138.9843 
 497   0.0000       5.114396       139.1698 
 498   0.0000       5.137329       139.7938 
 499   0.0000       5.145077       140.0047 
 500   0.0000       5.160437       140.4226 
 501   0.0000       5.163454       140.5047 
 502   0.0000       5.196449       141.4026 
 503   0.0000       5.207722       141.7093 
 504   0.0000       5.211115       141.8017 
 505   0.0000       5.253545       142.9562 
 506   0.0000       5.291196       143.9807 
 507   0.0000       5.303697       144.3209 
 508   0.0000       5.318639       144.7275 
 509   0.0000       5.322031       144.8198 
 510   0.0000       5.356687       145.7629 
 511   0.0000       5.383294       146.4869 
 512   0.0000       5.395385       146.8159 
 513   0.0000       5.426434       147.6608 
 514   0.0000       5.447515       148.2344 
 515   0.0000       5.475221       148.9883 
 516   0.0000       5.503038       149.7453 
 517   0.0000       5.532382       150.5438 
 518   0.0000       5.549587       151.0119 
 519   0.0000       5.558897       151.2653 
 520   0.0000       5.577462       151.7705 
 521   0.0000       5.600278       152.3913 
 522   0.0000       5.635363       153.3460 
 523   0.0000       5.647051       153.6641 
 524   0.0000       5.670892       154.3128 
 525   0.0000       5.682202       154.6206 
 526   0.0000       5.704415       155.2250 
 527   0.0000       5.722408       155.7146 
 528   0.0000       5.752442       156.5319 
 529   0.0000       5.761893       156.7891 
 530   0.0000       5.803201       157.9131 
 531   0.0000       5.824207       158.4847 
 532   0.0000       5.898815       160.5149 
 533   0.0000       5.915062       160.9570 
 534   0.0000       5.932183       161.4229 
 535   0.0000       6.001755       163.3160 
 536   0.0000       6.041597       164.4002 
 537   0.0000       6.064105       165.0127 
 538   0.0000       6.094725       165.8459 
 539   0.0000       6.166178       167.7902 
 540   0.0000       6.182254       168.2277 
 541   0.0000       6.274218       170.7301 
 542   0.0000       6.319449       171.9609 
 543   0.0000       6.354010       172.9014 
 544   0.0000       6.422581       174.7673 
 545   0.0000       6.453051       175.5964 
 546   0.0000       6.496707       176.7844 
 547   0.0000       6.528807       177.6579 
 548   0.0000       6.567066       178.6989 
 549   0.0000       6.582585       179.1212 
 550   0.0000       6.587453       179.2537 
 551   0.0000       6.666275       181.3986 
 552   0.0000       6.732197       183.1924 
 553   0.0000       6.845726       186.2817 
 554   0.0000       6.869417       186.9263 
 555   0.0000       6.960043       189.3924 
 556   0.0000       7.088704       192.8935 
 557   0.0000       7.259116       197.5306 
 558   0.0000       7.422806       201.9848 
 559   0.0000       7.494936       203.9476 
 560   0.0000      22.667325       616.8093 
 561   0.0000      23.051031       627.2505 
 562   0.0000      23.073009       627.8485 
 563   0.0000      23.172107       630.5451 
 564   0.0000      23.205268       631.4475 
 565   0.0000      23.257823       632.8776 
 566   0.0000      23.347615       635.3209 
 567   0.0000      23.481567       638.9659 
 568   0.0000      23.573909       641.4787 
 569   0.0000      24.123331       656.4292 
 570   0.0000      32.079940       872.9396 
 571   0.0000      32.663356       888.8151 
 572   0.0000      43.891129      1194.3383 
 573   0.0000      43.983186      1196.8433 

                    ********************************
                    * MULLIKEN POPULATION ANALYSIS *
                    ********************************

-----------------------
MULLIKEN ATOMIC CHARGES
-----------------------
   0 O :   -0.262825
   1 O :   -0.324502
   2 N :   -0.321419
   3 N :    0.025921
   4 C :   -0.167677
   5 C :    0.101958
   6 C :    0.022810
   7 C :   -0.133366
   8 C :   -0.134549
   9 C :    0.279327
  10 C :   -0.180301
  11 C :   -0.183305
  12 C :    0.139598
  13 C :   -0.211105
  14 H :    0.094224
  15 H :    0.087982
  16 H :    0.102677
  17 H :    0.147547
  18 H :    0.132688
  19 H :    0.124500
  20 H :    0.137258
  21 H :    0.154341
  22 H :    0.152240
  23 H :    0.215979
Sum of atomic charges:    0.0000000

--------------------------------
MULLIKEN REDUCED ORBITAL CHARGES
--------------------------------
  0 O s       :     3.752421  s :     3.752421
      pz      :     1.585673  p :     4.483269
      px      :     1.612529
      py      :     1.285067
      dz2     :     0.006675  d :     0.025856
      dxz     :     0.007111
      dyz     :     0.003449
      dx2y2   :     0.006165
      dxy     :     0.002456
      f0      :     0.000145  f :     0.001278
      f+1     :     0.000304
      f-1     :     0.000133
      f+2     :     0.000213
      f-2     :     0.000275
      f+3     :     0.000063
      f-3     :     0.000145

  1 O s       :     3.806936  s :     3.806936
      pz      :     1.449424  p :     4.486040
      px      :     1.429837
      py      :     1.606779
      dz2     :     0.006919  d :     0.029746
      dxz     :     0.005171
      dyz     :     0.006189
      dx2y2   :     0.005683
      dxy     :     0.005784
      f0      :     0.000163  f :     0.001781
      f+1     :     0.000221
      f-1     :     0.000338
      f+2     :     0.000328
      f-2     :     0.000306
      f+3     :     0.000187
      f-3     :     0.000239

  2 N s       :     3.515404  s :     3.515404
      pz      :     1.410550  p :     3.768790
      px      :     1.261432
      py      :     1.096808
      dz2     :     0.007856  d :     0.035661
      dxz     :     0.007436
      dyz     :     0.002676
      dx2y2   :     0.011916
      dxy     :     0.005776
      f0      :     0.000099  f :     0.001564
      f+1     :     0.000348
      f-1     :     0.000138
      f+2     :     0.000231
      f-2     :     0.000097
      f+3     :     0.000289
      f-3     :     0.000362

  3 N s       :     3.616634  s :     3.616634
      pz      :     1.057456  p :     3.318966
      px      :     1.196665
      py      :     1.064845
      dz2     :     0.002575  d :     0.036724
      dxz     :     0.012684
      dyz     :     0.001885
      dx2y2   :     0.008486
      dxy     :     0.011093
      f0      :     0.000231  f :     0.001755
      f+1     :     0.000169
      f-1     :     0.000054
      f+2     :     0.000297
      f-2     :     0.000206
      f+3     :     0.000549
      f-3     :     0.000249

  4 C s       :     3.234557  s :     3.234557
      pz      :     0.949763  p :     2.838355
      px      :     0.874196
      py      :     1.014396
      dz2     :     0.022600  d :     0.089162
      dxz     :     0.020928
      dyz     :     0.008878
      dx2y2   :     0.024125
      dxy     :     0.012631
      f0      :     0.000734  f :     0.005604
      f+1     :     0.001127
      f-1     :     0.000488
      f+2     :     0.000835
      f-2     :     0.000580
      f+3     :     0.000854
      f-3     :     0.000987

  5 C s       :     3.086047  s :     3.086047
      pz      :     0.964545  p :     2.643647
      px      :     0.804042
      py      :     0.875060
      dz2     :     0.029779  d :     0.158168
      dxz     :     0.043325
      dyz     :     0.018329
      dx2y2   :     0.041460
      dxy     :     0.025275
      f0      :     0.001273  f :     0.010180
      f+1     :     0.001633
      f-1     :     0.000884
      f+2     :     0.001470
      f-2     :     0.001058
      f+3     :     0.002093
      f-3     :     0.001770

  6 C s       :     3.287856  s :     3.287856
      pz      :     0.871770  p :     2.544119
      px      :     0.807882
      py      :     0.864468
      dz2     :     0.025255  d :     0.135521
      dxz     :     0.028313
      dyz     :     0.016448
      dx2y2   :     0.033017
      dxy     :     0.032488
      f0      :     0.000855  f :     0.009694
      f+1     :     0.001193
      f-1     :     0.001470
      f+2     :     0.001770
      f-2     :     0.001222
      f+3     :     0.001552
      f-3     :     0.001631

  7 C s       :     3.174543  s :     3.174543
      pz      :     0.978437  p :     2.855709
      px      :     0.947137
      py      :     0.930136
      dz2     :     0.010545  d :     0.095591
      dxz     :     0.026018
      dyz     :     0.012460
      dx2y2   :     0.019553
      dxy     :     0.027016
      f0      :     0.000624  f :     0.007523
      f+1     :     0.000672
      f-1     :     0.001191
      f+2     :     0.001098
      f-2     :     0.001228
      f+3     :     0.001358
      f-3     :     0.001351

  8 C s       :     3.159121  s :     3.159121
      pz      :     0.957031  p :     2.870575
      px      :     0.929230
      py      :     0.984314
      dz2     :     0.013885  d :     0.097290
      dxz     :     0.022337
      dyz     :     0.013467
      dx2y2   :     0.023386
      dxy     :     0.024216
      f0      :     0.000897  f :     0.007563
      f+1     :     0.001039
      f-1     :     0.000671
      f+2     :     0.001505
      f-2     :     0.001017
      f+3     :     0.001467
      f-3     :     0.000965

  9 C s       :     3.089073  s :     3.089073
      pz      :     0.714571  p :     2.348413
      px      :     0.723928
      py      :     0.909914
      dz2     :     0.071252  d :     0.258482
      dxz     :     0.038830
      dyz     :     0.044178
      dx2y2   :     0.064870
      dxy     :     0.039352
      f0      :     0.002874  f :     0.024704
      f+1     :     0.003296
      f-1     :     0.003454
      f+2     :     0.005411
      f-2     :     0.003335
      f+3     :     0.003553
      f-3     :     0.002782

 10 C s       :     3.209706  s :     3.209706
      pz      :     0.941727  p :     2.863785
      px      :     0.917541
      py      :     1.004516
      dz2     :     0.015624  d :     0.099283
      dxz     :     0.024021
      dyz     :     0.012339
      dx2y2   :     0.021188
      dxy     :     0.026111
      f0      :     0.000956  f :     0.007527
      f+1     :     0.001021
      f-1     :     0.000672
      f+2     :     0.001457
      f-2     :     0.001039
      f+3     :     0.001481
      f-3     :     0.000901

 11 C s       :     3.213686  s :     3.213686
      pz      :     0.969340  p :     2.863078
      px      :     0.961565
      py      :     0.932174
      dz2     :     0.010508  d :     0.099012
      dxz     :     0.027544
      dyz     :     0.012316
      dx2y2   :     0.022005
      dxy     :     0.026638
      f0      :     0.000619  f :     0.007529
      f+1     :     0.000728
      f-1     :     0.001199
      f+2     :     0.001063
      f-2     :     0.001235
      f+3     :     0.001324
      f-3     :     0.001360

 12 C s       :     3.200227  s :     3.200227
      pz      :     0.923519  p :     2.536191
      px      :     0.730080
      py      :     0.882592
      dz2     :     0.024343  d :     0.115030
      dxz     :     0.020980
      dyz     :     0.016594
      dx2y2   :     0.027138
      dxy     :     0.025976
      f0      :     0.000703  f :     0.008954
      f+1     :     0.001197
      f-1     :     0.001462
      f+2     :     0.001483
      f-2     :     0.001321
      f+3     :     0.001251
      f-3     :     0.001536

 13 C s       :     3.173551  s :     3.173551
      pz      :     0.936824  p :     2.943157
      px      :     1.056882
      py      :     0.949451
      dz2     :     0.004111  d :     0.077689
      dxz     :     0.029393
      dyz     :     0.005572
      dx2y2   :     0.016175
      dxy     :     0.022438
      f0      :     0.001946  f :     0.016708
      f+1     :     0.002119
      f-1     :     0.000492
      f+2     :     0.002437
      f-2     :     0.001757
      f+3     :     0.004726
      f-3     :     0.003230

 14 H s       :     0.868860  s :     0.868860
      pz      :     0.013013  p :     0.035066
      px      :     0.011187
      py      :     0.010865
      dz2     :     0.000492  d :     0.001851
      dxz     :     0.000521
      dyz     :     0.000398
      dx2y2   :     0.000299
      dxy     :     0.000140

 15 H s       :     0.875041  s :     0.875041
      pz      :     0.010730  p :     0.035087
      px      :     0.010611
      py      :     0.013746
[...]
 11 C      6.1833     6.0000    -0.1833     4.0354     4.0354    -0.0000
 12 C      5.8604     6.0000     0.1396     3.7125     3.7125    -0.0000
 13 C      6.2111     6.0000    -0.2111     4.0629     4.0629     0.0000
 14 H      0.9058     1.0000     0.0942     1.0248     1.0248    -0.0000
 15 H      0.9120     1.0000     0.0880     1.0085     1.0085     0.0000
 16 H      0.8973     1.0000     0.1027     1.0222     1.0222    -0.0000
 17 H      0.8525     1.0000     0.1475     1.0040     1.0040     0.0000
 18 H      0.8673     1.0000     0.1327     1.0023     1.0023     0.0000
 19 H      0.8755     1.0000     0.1245     1.0315     1.0315    -0.0000
 20 H      0.8627     1.0000     0.1373     1.0430     1.0430     0.0000
 21 H      0.8457     1.0000     0.1543     1.0028     1.0028    -0.0000
 22 H      0.8478     1.0000     0.1522     1.0037     1.0037    -0.0000
 23 H      0.7840     1.0000     0.2160     1.0400     1.0400     0.0000

  Mayer bond orders larger than 0.100000
B(  0-O ,  9-C ) :   1.2226 B(  0-O , 23-H ) :   0.9585 B(  1-O ,  9-C ) :   2.0616 
B(  2-N ,  5-C ) :   1.0051 B(  2-N , 19-H ) :   0.9993 B(  2-N , 20-H ) :   0.9898 
B(  3-N , 13-C ) :   3.0606 B(  4-C ,  5-C ) :   0.9117 B(  4-C ,  6-C ) :   0.8745 
B(  4-C , 14-H ) :   0.9950 B(  4-C , 15-H ) :   0.9935 B(  5-C ,  9-C ) :   0.9150 
B(  5-C , 16-H ) :   0.9725 B(  6-C ,  7-C ) :   1.3409 B(  6-C ,  8-C ) :   1.3519 
B(  7-C , 10-C ) :   1.4839 B(  7-C , 17-H ) :   0.9570 B(  8-C , 11-C ) :   1.5048 
B(  8-C , 18-H ) :   0.9564 B( 10-C , 12-C ) :   1.3581 B( 10-C , 21-H ) :   0.9543 
B( 11-C , 12-C ) :   1.3540 B( 11-C , 22-H ) :   0.9518 B( 12-C , 13-C ) :   0.9420 


-------
TIMINGS
-------

Total SCF time: 0 days 0 hours 4 min 7 sec 

Total time                  ....     247.026 sec
Sum of individual times     ....     238.450 sec  ( 96.5%)

SCF preparation             ....       0.469 sec  (  0.2%)
Fock matrix formation       ....     234.611 sec  ( 95.0%)
  Startup                   ....       0.024 sec  (  0.0% of F)
  Split-RI-J                ....      19.622 sec  (  8.4% of F)
  Chain of spheres X        ....     194.524 sec  ( 82.9% of F)
  XC integration            ....      28.686 sec  ( 12.2% of F)
    XC Preparation          ....       0.000 sec  (  0.0% of XC)
    Basis function eval.    ....       7.038 sec  ( 24.5% of XC)
    Density eval.           ....       7.864 sec  ( 27.4% of XC)
    XC-Functional eval.     ....       0.521 sec  (  1.8% of XC)
    XC-Potential eval.      ....      12.571 sec  ( 43.8% of XC)
Diagonalization             ....       0.000 sec  (  0.0%)
Density matrix formation    ....       0.199 sec  (  0.1%)
Total Energy calculation    ....       0.084 sec  (  0.0%)
Population analysis         ....       1.103 sec  (  0.4%)
Orbital Transformation      ....       0.224 sec  (  0.1%)
Orbital Orthonormalization  ....       0.000 sec  (  0.0%)
DIIS solution               ....       0.952 sec  (  0.4%)
  MO trafo                  ....       0.000 sec  (  0.0 % of DIIS)
  Orb grad                  ....       0.000 sec  (  0.0 % of DIIS)
  Energy W gradient         ....       0.000 sec  (  0.0 % of DIIS)
  DIIS error                ....       0.197 sec  ( 20.7 % of DIIS)
  DIIS work                 ....       0.625 sec  ( 65.7 % of DIIS)
  Form Q                    ....       0.000 sec  (  0.0 % of DIIS)
  Form QpQm                 ....       0.000 sec  (  0.0 % of DIIS)
  Exp/Cayley                ....       0.000 sec  (  0.0 % of DIIS)
  Orb update                ....       0.000 sec  (  0.0 % of DIIS)
  Wake-sleep                ....       0.019 sec  (  2.0 % of DIIS)
SOSCF solution              ....       0.806 sec  (  0.3%)
  MO trafo                  ....       0.301 sec  ( 37.3 % of SOSCF)
  Orb grad                  ....       0.016 sec  (  1.9 % of SOSCF)
  Rot update                ....       0.034 sec  (  4.2 % of SOSCF)
  Step                      ....       0.441 sec  ( 54.7 % of SOSCF)
Finished LeanSCF after 247.1 sec

Maximum memory used throughout the entire LEANSCF-calculation: 78.0 MB


-------------------------------------------------------------------------------
                          DFT DISPERSION CORRECTION                            
                                                                               
                              DFTD3 V3.1  Rev 1                                
                          USING Becke-Johnson damping                          
-------------------------------------------------------------------------------
The B3LYP functional is recognized
Active option DFTDOPT                   ...         4   

molecular C6(AA) [au] = 6703.809427 


            DFT-D V3
 parameters
 s6 scaling factor         :     1.0000 
 a1 scaling factor         :     0.3981 
 s8 scaling factor         :     1.9889 
 a2 scaling factor         :     4.4211 
 ad hoc parameters k1-k3   :    16.0000     1.3333    -4.0000 

 Edisp/kcal,au: -30.108433424584  -0.047980837672 
 E6   /kcal   : -14.193959894 
 E8   /kcal   : -15.914473531 
 % E8         :  52.857195544 

-------------------------   ----------------
Dispersion correction           -0.047980838
-------------------------   ----------------


-------------------------   --------------------
FINAL SINGLE POINT ENERGY      -646.977434551466
-------------------------   --------------------



           ************************************************************
           *        Program running with 2 parallel MPI-processes     *
           *              working on a common directory               *
           ************************************************************
------------------------------------------------------------------------------
                            ORCA SCF RESPONSE CALCULATION
------------------------------------------------------------------------------

GBWName                                 ... /kaggle/working/Phe-CN-2/Phe-CN_InterFrag.gbw
Number of atoms                         ...     24
Number of basis functions               ...    574
Max core memory                         ...   3000 MB

Electric field perturbation             ... YES
Quadrupolar field perturbation          ...  NO
Magnetic field perturbation (no GIAO)   ...  NO
Magnetic field perturbation (with GIAO) ...  NO
Linear momentum (velocity) perturbation ...  NO
Spin-orbit coupling perturbation        ...  NO
Choice of electric origin               ... Center of mass
Position of electric origin             ...    -0.240116    -0.085028    -0.072403
Choice of magnetic origin               ... GIAO
Position of magnetic origin             ...     0.000000     0.000000     0.000000
Nuclear geometric perturbations         ...  NO (  72 perturbations)
Nucleus-orbit perturbations             ...  NO (   0 perturbations)
Spin-dipole/Fermi contact perturbations ...  NO (   0 perturbations)

Total number of real perturbations      ...      3
Total number of imaginary perturbations ...      0
Total number of triplet perturbations   ...      0
Total number of SOC perturbations       ...      0

Using XC Grid                  ... (/kaggle/working/Phe-CN-2/Phe-CN_InterFrag.grid_cpscf.tmp) 
Recalculating density on grid  ... (/kaggle/working/Phe-CN-2/Phe-CN_InterFrag.grho_cpscf0.tmp) done
Calculating the xc-kernel      ... (/kaggle/working/Phe-CN-2/Phe-CN_InterFrag.fxc_cpscf0.tmp) done

                                **********************
                                * REAL PERTURBATIONS *
                                **********************



-------------------
SHARK CP-SCF DRIVER
-------------------

Dimension of the orbital basis          ...    574
Dimension of the CPSCF-problem          ...  26200
Number of operators                     ...      1
Max. number of iterations               ...    128
Convergence Tolerance                   ... 1.0e-04
Number of perturbations                 ...      3
Perturbation type                       ... REAL

----------------------------
POPLE LINEAR EQUATION SOLVER
----------------------------

  ITERATION   0:   ||err||_max =   2.1526e+01 (  10.9 sec   0/  3 done)
  ITERATION   1:   ||err||_max =   2.0200e+00 (  10.2 sec   0/  3 done)
  ITERATION   2:   ||err||_max =   8.0737e-01 (  10.0 sec   0/  3 done)
  ITERATION   3:   ||err||_max =   2.3153e-01 (   9.7 sec   0/  3 done)
  ITERATION   4:   ||err||_max =   7.8132e-02 (  10.0 sec   0/  3 done)
  ITERATION   5:   ||err||_max =   2.7272e-02 (  10.0 sec   0/  3 done)
  ITERATION   6:   ||err||_max =   1.2569e-02 (  10.4 sec   0/  3 done)
  ITERATION   7:   ||err||_max =   3.9010e-03 (  10.0 sec   0/  3 done)
  ITERATION   8:   ||err||_max =   1.1571e-03 (  10.1 sec   0/  3 done)
  ITERATION   9:   ||err||_max =   3.5197e-04 (  10.1 sec   0/  3 done)
  ITERATION  10:   ||err||_max =   1.0002e-04 (  10.1 sec   2/  3 done)
  ITERATION  11:   ||err||_max =   3.1415e-05 (   7.0 sec   3/  3 done)

CP-SCF equations solved in 118.4 sec
Response densities calculated in   0.0 sec

Maximum memory used throughout the entire SCFRESP-calculation: 101.9 MB


           ************************************************************
           *        Program running with 2 parallel MPI-processes     *
           *              working on a common directory               *
           ************************************************************

------------------------------------------------------------------------------
                              ORCA PROPERTY CALCULATIONS
------------------------------------------------------------------------------

GBWName                                 ... /kaggle/working/Phe-CN-2/Phe-CN_InterFrag.gbw
Number of atoms                         ...     24
Number of basis functions               ...    574
Max core memory                         ...   3000 MB

Electric properties:
Dipole moment                           ... YES
Quadrupole moment                       ...  NO
Static polarizability (Dipole/Dipole)   ... YES
Static polarizability (Dipole/Quad.)    ...  NO
Static polarizability (Quad./Quad.)     ...  NO
Static polarizability (Velocity)        ...  NO
Static hyperpolarizability              ...  NO

Atomic electric properties:
Dipole moment                           ...  NO
Quadrupole moment                       ...  NO
Static polarizability                   ...  NO

Choice of electric origin               ... Center of mass
Position of electric origin             ...    -0.240116    -0.085028    -0.072403

General magnetic properties:
Magnetizability                         ...  NO

EPR properties:
g-Tensor (aka g-matrix)                 ...  NO
Zero-Field splitting spin-orbit         ...  NO
Zero-field splitting spin-spin          ...  NO
Hyperfine couplings                     ...  NO (   0 nuclei)
Quadrupole couplings                    ...  NO (   0 nuclei)
Contact density                         ...  NO (   0 nuclei)

NMR properties:
Chemical shifts                         ...  NO (   0 nuclei)
Spin-rotation constants                 ...  NO (   0 nuclei)
Spin-spin couplings                     ...  NO (   0 nuclei,    0 pairs)

Choice of magnetic origin               ... GIAO
Position of magnetic origin             ...     0.000000     0.000000     0.000000

Properties with geometric perturbations:
SCF Hessian                             ...  NO
IR spectrum                             ...  NO
VCD spectrum                            ...  NO
X-ray spectroscopy properties:
SCF XES/XAS/RIXS spectra                ...  NO

SCF SOC stabilization energy            ...  NO
Diagonal Born-Oppenheimer correction    ...  NO

-------------
DIPOLE MOMENT
-------------

Method             : SCF
Type of density    : Electron Density
Multiplicity       :   1
Irrep              :   0
Energy             :  -646.9294537137940324 Eh
Basis              : AO
                                X                 Y                 Z
Electronic contribution:      7.807788885      -5.038585016      -1.516100088
Nuclear contribution   :     -8.974442897       6.108543598       1.818016055
                        -----------------------------------------
Total Dipole Moment    :     -1.166654012       1.069958581       0.301915967
                        -----------------------------------------
Magnitude (a.u.)       :      1.611535355
Magnitude (Debye)      :      4.096197343



--------------------
Rotational spectrum 
--------------------
 
Rotational constants in cm-1:             0.055283             0.011803             0.010985 
Rotational constants in MHz :          1657.354744           353.831718           329.332225 

Dipole components along the rotational axes: 
x,y,z [a.u.] :     1.234833    -1.012224    -0.218256 
x,y,z [Debye]:     3.138696    -2.572869    -0.554762 

 

Dipole moment calculation done in   0.0 sec 


---------------------------------------------------
STATIC POLARIZABILITY TENSOR (Dipole/Dipole)
---------------------------------------------------

Method             : SCF
Type of density    : Electron Density
Type of derivative : Electric Field (Direction=X)
Multiplicity       :   1
Irrep              :   0
Basis              : AO

The raw cartesian tensor (atomic units):
     189.122043449       -22.455290727       -16.578402763  
     -22.455290727       119.706058657        -9.958319787  
     -16.578402763        -9.958319787       101.214504054  
diagonalized tensor: 
      90.570577304       121.898540609       197.573488248  

Orientation: 
       0.250855495         0.150669270        -0.956227113  
       0.480555325         0.838115133         0.258127108  
       0.840320236        -0.524272635         0.137840867  

Isotropic polarizability : 136.68087


Polarizability tensor calculation done in   0.0 sec 

Maximum memory used throughout the entire PROP-calculation: 53.7 MB

--------------------------------
SUGGESTED CITATIONS FOR THIS RUN
--------------------------------

Below you find a list of papers that are relevant to this ORCA run
We neither can nor want to force you to cite these papers, but we appreciate if you do
You receive ORCA, which is the product of decades of hard work by many enthusiastic individuals, for free
The only thing we kindly ask in return is that you cite our papers,
We deeply appreciate it, if you show your appreciation for ORCA by not just citing the generic ORCA reference.

Please note that relegating all ORCA citations to the supporting information does *not* help us.
SI sections are not indexed - citations you put there will not count into any citation statistics
But we need these citations in order to attract the funding resources that allow us to do what we are doing

Therefore, if you are a happy ORCA user, please consider citing a few of the papers listed below in the main body of your paper

In addition to the list printed below, the program has created the file /kaggle/working/Phe-CN-2/Phe-CN_InterFrag.bibtex that contains the list in bibtex format
You can import this file easily into all common literature databanks and citation aid programs

It goes without saying that in many instances, there are alternative algorithms to achieve similar
results as the ones you have gotten from ORCA. It is, of course, also the case that in some instances
ORCA just re-implements algorithms worked out by others. We are fully aware of that and we are also
fully appreciative of our colleagues work. Hence this citation list should not be read as indicating
that the listed papers, which are focused on our own work, are the only ones worth citing. It simply
meant to make it easier for users to cite ORCA specific papers. It is not a substitute for doing your
own literature research and citing the relevant literature in a scientifically appropriate manner.

List of essential papers. We consider these as the minimum necessary citations

  1. Neese, F.
     Software update: the ORCA program system, version 6.0
     WIRES Comput. Molec. Sci. 2025 15(1), e70019
     doi.org/10.1002/wcms.70019

List of papers to cite with high priority. The work reported in these papers was absolutely
necessary for this run to complete.
Our perspective: the developers of density functionals and basis sets usually get cited in chemistry papers
Good! But without the algorithms to do something with them, the functionals or basis sets would not do anything.
Hence, in our opinion, the algorithm design and method developments papers are equally worthy of getting cited

  1. Neese, F.
     An improvement of the resolution of the identity approximation for the formation of the Coulomb matrix
     J. Comp. Chem. 2003 24(14), 1740-1747
     doi.org/10.1002/jcc.10318
  2. Neese, F.; Wennmohs, F.; Hansen, A.; Becker, U.
     Efficient, approximate and parallel Hartree-Fock and hybrid DFT calculations. A 'chain-of-spheres' algorithm for the Hartree-Fock exchange
     Chem. Phys. 2009 356(1-3), 98-109
     doi.org/10.1016/j.chemphys.2008.10.036
  3. Grimme, S.; Antony, J.; Ehrlich, S.; Krieg, H.
     A consistent and accurate ab initio parametrization of density functional dispersion correction (DFT-D) for the 94 elements H-Pu
     J. Chem. Phys. 2010 132 , 154104
     doi.org/10.1063/1.3382344
  4. Grimme, S.; Ehrlich, S.; Goerigk, L.
     Effect of the damping function in dispersion corrected density functional theory
     J. Comput. Chem. 2011 32(7), 1456-1465
     doi.org/10.1002/jcc.21759
  5. Helmich-Paris, B.; de Souza, B.; Neese, F.; Izsák, R.
     An improved chain of spheres for exchange algorithm
     J. Chem. Phys. 2021 155(10), 104109
     doi.org/10.1063/5.0058766
  6. Neese, F.
     The SHARK Integral Generation and Digestion System
     J. Comp. Chem. 2022 44(3), 381
     doi.org/10.1002/jcc.26942

List of suggested additional citations. These are papers that are important in the 'surrounding' of 
of this run, or papers that preceded the highly important papers. If you like your results we are grateful for a citation.

  1. Izsak, R.; Neese, F.
     An overlap fitted chain of spheres exchange method
     J. Chem. Phys. 2011 135 , 144105
     doi.org/10.1063/1.3646921
  2. Izsak, R.; Hansen, A.; Neese, F.
     The resolution of identity and chain of spheres approximations for the LPNO-CCSD singles Fock term
     Molec. Phys. 2012 110 , 2413-2417
     doi.org/10.1080/00268976.2012.687466
  3. Neese, F.
     The ORCA program system
     WIRES Comput. Molec. Sci. 2012 2(1), 73-78
     doi.org/10.1002/wcms.81
  4. Izsak, R.; Neese, F.; Klopper, W.
     Robust fitting techniques in the chain of spheres approximation to the Fock exchange: The role of the complementary space
     J. Chem. Phys. 2013 139 , 
     doi.org/10.1063/1.4819264
  5. Neese, F.
     Software update: the ORCA program system, version 4.0
     WIRES Comput. Molec. Sci. 2018 8(1), 1-6
     doi.org/10.1002/wcms.1327
  6. Neese, F.; Wennmohs, F.; Becker, U.; Riplinger, C.
     The ORCA quantum chemistry program package
     J. Chem. Phys. 2020 152(22), 224108
     doi.org/10.1063/5.0004608
  7. Neese, F.
     Software update: The ORCA program system—Version 5.0
     WIRES Comput. Molec. Sci. 2022 12(1), e1606
     doi.org/10.1002/wcms.1606

List of optional additional citations

  1. Neese, F.
     Approximate second-order SCF convergence for spin unrestricted wavefunctions
     Chem. Phys. Lett. 2000 325(1-3), 93-98
     doi.org/10.1016/s0009-2614(00)00662-x

Timings for individual modules:

Sum of individual times          ...      373.889 sec (=   6.231 min)
Startup calculation              ...        4.224 sec (=   0.070 min)   1.1 %
SCF iterations                   ...      249.720 sec (=   4.162 min)  66.8 %
SCF Response                     ...      119.422 sec (=   1.990 min)  31.9 %
Property calculations            ...        0.523 sec (=   0.009 min)   0.1 %
                             ****ORCA TERMINATED NORMALLY****
TOTAL RUN TIME: 0 days 0 hours 6 minutes 14 seconds 384 msec
