
                                        *****************
                                        * O   R   C   A *
                                        *****************

                                            #,                                       
                                            ###                                      
                                            ####                                     
                                            #####                                    
                                            ######                                   
                                           ########,                                 
                                     ,,################,,,,,                         
                               ,,#################################,,                 
                          ,,##########################################,,             
                       ,#########################################, ''#####,          
                    ,#############################################,,   '####,        
                  ,##################################################,,,,####,       
                ,###########''''           ''''###############################       
              ,#####''   ,,,,##########,,,,          '''####'''          '####       
            ,##' ,,,,###########################,,,                        '##       
           ' ,,###''''                  '''############,,,                           
         ,,##''                                '''############,,,,        ,,,,,,###''
      ,#''                                            '''#######################'''  
     '                                                          ''''####''''         
             ,#######,   #######,   ,#######,      ##                                
            ,#'     '#,  ##    ##  ,#'     '#,    #''#        ######   ,####,        
            ##       ##  ##   ,#'  ##            #'  '#       #        #'  '#        
            ##       ##  #######   ##           ,######,      #####,   #    #        
            '#,     ,#'  ##    ##  '#,     ,#' ,#      #,         ##   #,  ,#        
             '#######'   ##     ##  '#######'  #'      '#     #####' # '####'        



                  #######################################################
                  #                        -***-                        #
                  #          Department of theory and spectroscopy      #
                  #    Directorship and core code : Frank Neese         #
                  #        Max Planck Institute fuer Kohlenforschung    #
                  #                Kaiser Wilhelm Platz 1               #
                  #                 D-45470 Muelheim/Ruhr               #
                  #                      Germany                        #
                  #                                                     #
                  #                  All rights reserved                #
                  #                        -***-                        #
                  #######################################################


                         Program Version 5.0.0 -  RELEASE  -


 With contributions from (in alphabetic order):
   Daniel Aravena         : Magnetic Suceptibility
   Michael Atanasov       : Ab Initio Ligand Field Theory (pilot matlab implementation)
   Alexander A. Auer      : GIAO ZORA, VPT2 properties, NMR spectrum
   Ute Becker             : Parallelization
   Giovanni Bistoni       : ED, misc. LED, open-shell LED, HFLD
   Martin Brehm           : Molecular dynamics
   Dmytro Bykov           : SCF Hessian
   Vijay G. Chilkuri      : MRCI spin determinant printing, contributions to CSF-ICE
   Dipayan Datta          : RHF DLPNO-CCSD density
   Achintya Kumar Dutta   : EOM-CC, STEOM-CC
   Dmitry Ganyushin       : Spin-Orbit,Spin-Spin,Magnetic field MRCI
   Miquel Garcia          : C-PCM Hessian, Gaussian charge scheme
   Yang Guo               : DLPNO-NEVPT2, F12-NEVPT2, CIM, IAO-localization
   Andreas Hansen         : Spin unrestricted coupled pair/coupled cluster methods
   Benjamin Helmich-Paris : MC-RPA, TRAH-SCF, COSX integrals
   Lee Huntington         : MR-EOM, pCC
   Robert Izsak           : Overlap fitted RIJCOSX, COSX-SCS-MP3, EOM
   Marcus Kettner         : VPT2
   Christian Kollmar      : KDIIS, OOCD, Brueckner-CCSD(T), CCSD density, CASPT2, CASPT2-K
   Simone Kossmann        : Meta GGA functionals, TD-DFT gradient, OOMP2, MP2 Hessian
   Martin Krupicka        : Initial AUTO-CI
   Lucas Lang             : DCDCAS
   Marvin Lechner         : AUTO-CI (C++ implementation), FIC-MRCC
   Dagmar Lenk            : GEPOL surface, SMD
   Dimitrios Liakos       : Extrapolation schemes; Compound Job, initial MDCI parallelization
   Dimitrios Manganas     : Further ROCIS development; embedding schemes
   Dimitrios Pantazis     : SARC Basis sets
   Anastasios Papadopoulos: AUTO-CI, single reference methods and gradients
   Taras Petrenko         : DFT Hessian,TD-DFT gradient, ASA, ECA, R-Raman, ABS, FL, XAS/XES, NRVS
   Peter Pinski           : DLPNO-MP2, DLPNO-MP2 Gradient
   Christoph Reimann      : Effective Core Potentials
   Marius Retegan         : Local ZFS, SOC
   Christoph Riplinger    : Optimizer, TS searches, QM/MM, DLPNO-CCSD(T), (RO)-DLPNO pert. Triples
   Tobias Risthaus        : Range-separated hybrids, TD-DFT gradient, RPA, STAB
   Michael Roemelt        : Original ROCIS implementation
   Masaaki Saitow         : Open-shell DLPNO-CCSD energy and density
   Barbara Sandhoefer     : DKH picture change effects
   Avijit Sen             : IP-ROCIS
   Kantharuban Sivalingam : CASSCF convergence, NEVPT2, FIC-MRCI
   Bernardo de Souza      : ESD, SOC TD-DFT
   Georgi Stoychev        : AutoAux, RI-MP2 NMR
   Willem Van den Heuvel  : Paramagnetic NMR
   Boris Wezisla          : Elementary symmetry handling
   Frank Wennmohs         : Technical directorship


 We gratefully acknowledge several colleagues who have allowed us to
 interface, adapt or use parts of their codes:
   Stefan Grimme, W. Hujo, H. Kruse, P. Pracht,  : VdW corrections, initial TS optimization,
                  C. Bannwarth, S. Ehlert          DFT functionals, gCP, sTDA/sTD-DF
   Ed Valeev, F. Pavosevic, A. Kumar             : LibInt (2-el integral package), F12 methods
   Garnet Chan, S. Sharma, J. Yang, R. Olivares  : DMRG
   Ulf Ekstrom                                   : XCFun DFT Library
   Mihaly Kallay                                 : mrcc  (arbitrary order and MRCC methods)
   Jiri Pittner, Ondrej Demel                    : Mk-CCSD
   Frank Weinhold                                : gennbo (NPA and NBO analysis)
   Christopher J. Cramer and Donald G. Truhlar   : smd solvation model
   Lars Goerigk                                  : TD-DFT with DH, B97 family of functionals
   V. Asgeirsson, H. Jonsson                     : NEB implementation
   FAccTs GmbH                                   : IRC, NEB, NEB-TS, DLPNO-Multilevel, CI-OPT
                                                   MM, QMMM, 2- and 3-layer-ONIOM, Crystal-QMMM,
                                                   LR-CPCM, SF, NACMEs, symmetry and pop. for TD-DFT,
                                                   nearIR, NL-DFT gradient (VV10), updates on ESD,
                                                   ML-optimized integration grids
   S Lehtola, MJT Oliveira, MAL Marques          : LibXC Library
   Liviu Ungur et al                             : ANISO software


 Your calculation uses the libint2 library for the computation of 2-el integrals
 For citations please refer to: http://libint.valeyev.net

 Your ORCA version has been built with support for libXC version: 5.1.0
 For citations please refer to: https://tddft.org/programs/libxc/

 This ORCA versions uses:
   CBLAS   interface :  Fast vector & matrix operations
   LAPACKE interface :  Fast linear algebra routines
   Shared memory     :  Shared parallel matrices


================================================================================

----- Orbital basis set information -----
Your calculation utilizes the basis: def2-SVP
   F. Weigend and R. Ahlrichs, Phys. Chem. Chem. Phys. 7, 3297 (2005).

----- AuxJ basis set information -----
Your calculation utilizes the auxiliary basis: def2/J
   F. Weigend, Phys. Chem. Chem. Phys. 8, 1057 (2006).

================================================================================
                                        WARNINGS
                       Please study these warnings very carefully!
================================================================================


WARNING: Geometry Optimization
  ===> : Switching off AutoStart
         For restart on a previous wavefunction, please use MOREAD

INFO   : the flag for use of the SHARK integral package has been found!

================================================================================
                                       INPUT FILE
================================================================================
NAME = /home/friday_code/Desktop/DP2/tmp.inp
|  1> ! B3LYP 6-31G** Opt def2-svp
|  2> 
|  3> *xyz 0 1
|  4> O        1.538424301     -1.192693538      0.298904002
|  5> O       -0.953875699      2.067406462      0.329604002
|  6> O        1.809624301      2.397406462     -0.418795998
|  7> O        4.252024301     -1.090993538     -0.101395998
|  8> O       -3.328775699      0.459006462      1.152704002
|  9> N       -2.014275699     -0.531693538     -0.492995998
| 10> C       -0.159475699      1.045906462     -0.276795998
| 11> C       -0.724475699     -0.318293538      0.130304002
| 12> C        1.291724301      1.212106462      0.179504002
| 13> C        2.128724301     -0.003093538     -0.228095998
| 14> C        0.241724301     -1.449593538     -0.237595998
| 15> C        3.554024301      0.070306462      0.310204002
| 16> C       -3.205875699     -0.121793538      0.077504002
| 17> C       -4.392275699     -0.444993538     -0.790795998
| 18> H       -0.233575699      1.192706462     -1.361395998
| 19> H       -0.885475699     -0.327493538      1.217204002
| 20> H        1.313624301      1.349806462      1.268204002
| 21> H        2.182824301     -0.092093538     -1.321595998
| 22> H        0.311224301     -1.573893538     -1.325895998
| 23> H        3.568924301      0.100206462      1.404804002
| 24> H        4.090924301      0.941506462     -0.074195998
| 25> H       -2.031375699     -0.944493538     -1.421495998
| 26> H       -0.899575699      1.959906462      1.294504002
| 27> H        2.655024301      2.603406462      0.013804002
| 28> H        3.769624301     -1.861893538      0.243404002
| 29> H       -5.313175699     -0.330693538     -0.212395998
| 30> H       -4.415275699      0.238106462     -1.644195998
| 31> H       -4.331975699     -1.476193538     -1.150495998
| 32> C       -1.428404462     -4.750331099      1.464381979
| 33> C       -1.164740366     -6.256421373      1.655419639
| 34> C        0.075479841     -6.451573503      2.548169697
| 35> N       -2.332253055     -6.881494368      2.295562664
| 36> O        0.126897779     -5.920449193      3.645491489
| 37> O        1.149889142     -7.286556751      2.106957436
| 38> C       -0.205592205     -4.095328635      0.794088418
| 39> H       -1.600897425     -4.290094145      2.426881462
| 40> H       -2.298402007     -4.613656503      0.837951459
| 41> H       -0.991896058     -6.716706424      0.693292128
| 42> H       -2.159095654     -7.869391171      2.422365316
| 43> H       -3.147020809     -6.753082049      1.711042180
| 44> H        1.295710951     -7.987233937      2.747129069
| 45> N       -0.263682818     -2.687256022      0.373677441
| 46> O        0.799395608     -4.753855517      0.581670454
| 47> H       -0.539244399     -2.111522797      1.157607911
| 48> *
| 49> 
| 50> 
| 51>                          ****END OF INPUT****
================================================================================

                       *****************************
                       * Geometry Optimization Run *
                       *****************************

Geometry optimization settings:
Update method            Update   .... BFGS
Choice of coordinates    CoordSys .... Z-matrix Internals
Initial Hessian          InHess   .... Almoef's Model

Convergence Tolerances:
Energy Change            TolE     ....  5.0000e-06 Eh
Max. Gradient            TolMAXG  ....  3.0000e-04 Eh/bohr
RMS Gradient             TolRMSG  ....  1.0000e-04 Eh/bohr
Max. Displacement        TolMAXD  ....  4.0000e-03 bohr
RMS Displacement         TolRMSD  ....  2.0000e-03 bohr
Strict Convergence                ....  False
------------------------------------------------------------------------------
                        ORCA OPTIMIZATION COORDINATE SETUP
------------------------------------------------------------------------------

The optimization will be done in new redundant internal coordinates
Making redundant internal coordinates   ...  (new redundants) done
Evaluating the initial hessian          ...  (Almloef) done
Evaluating the coordinates              ...  done
Calculating the B-matrix                .... done
Calculating the G-matrix                .... done
Diagonalizing the G-matrix              .... done
Small eigenvalue found = 1.891e-03
Small eigenvalue found = 8.295e-03
Small eigenvalue found = 9.488e-03
Small eigenvalue found = 1.445e-02
Small eigenvalue found = 1.725e-02
Small eigenvalue found = 2.015e-02
The first mode is                       ....  110
The number of degrees of freedom        ....  126

    -----------------------------------------------------------------
                    Redundant Internal Coordinates


    -----------------------------------------------------------------
         Definition                    Initial Value    Approx d2E/dq
    -----------------------------------------------------------------
      1. B(C   6,O   1)                  1.4291         0.484768   
      2. B(C   7,N   5)                  1.4483         0.451681   
      3. B(C   7,C   6)                  1.5317         0.371297   
      4. B(C   8,C   6)                  1.5303         0.373165   
      5. B(C   8,O   2)                  1.4252         0.491766   
      6. B(C   9,C   8)                  1.5308         0.372448   
      7. B(C   9,O   0)                  1.4288         0.485344   
      8. B(C  10,C   7)                  1.5326         0.370081   
      9. B(C  10,O   0)                  1.4266         0.489149   
     10. B(C  11,C   9)                  1.5253         0.380038   
     11. B(C  11,O   3)                  1.4161         0.508502   
     12. B(C  12,N   5)                  1.3833         0.573633   
     13. B(C  12,O   4)                  1.2282         1.013932   
     14. B(C  13,C  12)                  1.5053         0.409048   
     15. B(H  14,C   6)                  1.0970         0.350964   
     16. B(H  15,C   7)                  1.0988         0.348647   
     17. B(H  16,C   8)                  1.0976         0.350195   
     18. B(H  17,C   9)                  1.0984         0.349095   
     19. B(H  18,C  10)                  1.0976         0.350213   
     20. B(H  19,C  11)                  1.0951         0.353404   
     21. B(H  20,C  11)                  1.0932         0.355935   
     22. B(H  21,N   5)                  1.0163         0.422852   
     23. B(H  22,O   1)                  0.9724         0.496825   
     24. B(H  23,O   2)                  0.9717         0.498007   
     25. B(H  24,O   3)                  0.9726         0.496500   
     26. B(H  25,C  13)                  1.0935         0.355544   
     27. B(H  26,C  13)                  1.0934         0.355676   
     28. B(H  27,C  13)                  1.0938         0.355111   
     29. B(C  29,C  28)                  1.5409         0.358933   
     30. B(C  30,C  29)                  1.5405         0.359399   
     31. B(N  31,C  29)                  1.4709         0.415704   
     32. B(O  32,C  30)                  1.2202         1.044249   
     33. B(O  33,C  30)                  1.4305         0.482305   
     34. B(C  34,C  28)                  1.5406         0.359246   
     35. B(H  35,C  28)                  1.0807         0.372574   
     36. B(H  36,C  28)                  1.0807         0.372566   
     37. B(H  37,C  29)                  1.0805         0.372923   
     38. B(H  38,N  31)                  1.0109         0.431214   
     39. B(H  39,N  31)                  1.0109         0.431216   
     40. B(H  40,O  33)                  0.9602         0.519526   
     41. B(N  41,C  34)                  1.4706         0.416118   
     42. B(N  41,C  10)                  1.4700         0.417100   
     43. B(O  42,C  34)                  1.2202         1.044363   
     44. B(H  43,N  41)                  1.0109         0.431255   
     45. A(C   9,O   0,C  10)          112.7526         0.393337   
     46. A(C   6,O   1,H  22)          108.1194         0.352164   
     47. A(C   8,O   2,H  23)          107.7923         0.353161   
     48. A(C  11,O   3,H  24)          107.6080         0.354987   
     49. A(C   7,N   5,C  12)          123.0932         0.399420   
     50. A(C   7,N   5,H  21)          117.9063         0.338707   
     51. A(C  12,N   5,H  21)          118.8608         0.352588   
     52. A(O   1,C   6,C   7)          108.5909         0.377223   
     53. A(C   7,C   6,H  14)          110.9196         0.322630   
     54. A(O   1,C   6,C   8)          108.8441         0.377551   
     55. A(O   1,C   6,H  14)          106.6385         0.335124   
     56. A(C   8,C   6,H  14)          110.1410         0.322896   
     57. A(C   7,C   6,C   8)          111.5487         0.362904   
     58. A(N   5,C   7,H  15)          107.0964         0.330854   
     59. A(C   6,C   7,H  15)          108.9303         0.322280   
     60. A(C   6,C   7,C  10)          111.1681         0.362390   
     61. A(N   5,C   7,C  10)          110.4488         0.372438   
     62. A(N   5,C   7,C   6)          110.2034         0.372648   
     63. A(C  10,C   7,H  15)          108.8839         0.322107   
     64. A(C   9,C   8,H  16)          110.6578         0.322678   
     65. A(O   2,C   8,C   9)          110.4715         0.378362   
     66. A(C   6,C   8,H  16)          109.1661         0.322780   
     67. A(C   6,C   8,C   9)          110.6646         0.363096   
     68. A(O   2,C   8,H  16)          107.7471         0.335801   
     69. A(O   2,C   8,C   6)          108.0448         0.378489   
     70. A(C   8,C   9,C  11)          112.2558         0.364230   
     71. A(C   8,C   9,H  17)          110.8737         0.322512   
     72. A(C  11,C   9,H  17)          108.0107         0.323580   
     73. A(O   0,C   9,H  17)          108.6677         0.334893   
     74. A(O   0,C   9,C  11)          107.2150         0.378823   
     75. A(O   0,C   9,C   8)          109.6842         0.377503   
     76. A(O   0,C  10,C   7)          110.4769         0.377597   
     77. A(O   0,C  10,N  41)          107.9229         0.383076   
     78. A(C   7,C  10,N  41)          107.7537         0.367374   
     79. A(C   7,C  10,H  18)          111.1952         0.322344   
     80. A(O   0,C  10,H  18)          109.6165         0.335506   
     81. A(H  18,C  10,N  41)          109.8000         0.326774   
     82. A(O   3,C  11,C   9)          108.5752         0.381897   
     83. A(H  19,C  11,H  20)          108.8465         0.289455   
     84. A(C   9,C  11,H  20)          111.9123         0.324613   
     85. A(O   3,C  11,H  20)          108.0153         0.338594   
     86. A(C   9,C  11,H  19)          111.5166         0.324233   
     87. A(O   3,C  11,H  19)          107.8312         0.338191   
     88. A(N   5,C  12,C  13)          112.1738         0.395050   
     89. A(O   4,C  12,C  13)          121.8457         0.437163   
     90. A(O   4,C  12,N   5)          125.9715         0.461764   
     91. A(H  26,C  13,H  27)          109.4810         0.289641   
     92. A(H  25,C  13,H  27)          108.5981         0.289624   
     93. A(C  12,C  13,H  27)          110.4055         0.328443   
     94. A(H  25,C  13,H  26)          109.2593         0.289696   
     95. A(C  12,C  13,H  26)          109.4306         0.328529   
     96. A(C  12,C  13,H  25)          109.6457         0.328509   
     97. A(H  35,C  28,H  36)          109.5045         0.293974   
     98. A(C  34,C  28,H  36)          109.4500         0.324048   
     99. A(C  29,C  28,H  36)          109.4642         0.324002   
    100. A(C  34,C  28,H  35)          109.4573         0.324050   
    101. A(C  29,C  28,H  35)          109.4593         0.324003   
    102. A(C  29,C  28,C  34)          109.4920         0.358484   
    103. A(C  30,C  29,H  37)          109.4681         0.324122   
    104. A(C  28,C  29,H  37)          109.4726         0.324053   
    105. A(C  30,C  29,N  31)          109.4490         0.365325   
    106. A(C  28,C  29,N  31)          109.4813         0.365244   
    107. A(C  28,C  29,C  30)          109.4765         0.358510   
    108. A(N  31,C  29,H  37)          109.4798         0.329997   
    109. A(O  32,C  30,O  33)          119.9876         0.449815   
    110. A(C  29,C  30,O  33)          119.9918         0.374777   
    111. A(C  29,C  30,O  32)          119.9960         0.429376   
    112. A(H  38,N  31,H  39)          109.5541         0.302922   
    113. A(C  29,N  31,H  39)          109.5178         0.335148   
    114. A(C  29,N  31,H  38)          109.5058         0.335148   
    115. A(C  30,O  33,H  40)          109.5340         0.354533   
    116. A(N  41,C  34,O  42)          119.9677         0.437968   
    117. A(C  28,C  34,O  42)          120.0015         0.429352   
    118. A(C  28,C  34,N  41)          120.0054         0.365360   
    119. A(C  34,N  41,H  43)          109.5343         0.335209   
    120. A(C  10,N  41,H  43)           86.3696         0.335340   
    121. A(C  10,N  41,C  34)          155.7022         0.372508   
    122. D(H  14,C   6,O   1,H  22)   -179.7099         0.018547   
    123. D(C   8,C   6,O   1,H  22)    -60.9119         0.018547   
    124. D(C   7,C   6,O   1,H  22)     60.7063         0.018547   
    125. D(N   5,C   7,C   6,C   8)   -170.9445         0.011016   
    126. D(H  15,C   7,C   6,H  14)   -164.9818         0.011016   
    127. D(H  15,C   7,N   5,H  21)   -154.1714         0.017406   
    128. D(C  10,C   7,C   6,C   8)    -48.1443         0.011016   
    129. D(C   6,C   7,N   5,C  12)    -88.1702         0.017406   
    130. D(N   5,C   7,C   6,O   1)     69.1076         0.011016   
    131. D(C  10,C   7,N   5,H  21)    -35.7422         0.017406   
    132. D(N   5,C   7,C   6,H  14)    -47.7638         0.011016   
    133. D(H  15,C   7,C   6,C   8)     71.8375         0.011016   
    134. D(C  10,C   7,C   6,O   1)   -168.0921         0.011016   
    135. D(C  10,C   7,N   5,C  12)    148.6088         0.017406   
    136. D(H  15,C   7,C   6,O   1)    -48.1103         0.011016   
    137. D(C   6,C   7,N   5,H  21)     87.4788         0.017406   
    138. D(C  10,C   7,C   6,H  14)     75.0365         0.011016   
    139. D(H  15,C   7,N   5,C  12)     30.1797         0.017406   
    140. D(H  16,C   8,C   6,H  14)    163.9411         0.011121   
    141. D(H  16,C   8,C   6,C   7)    -72.4360         0.011121   
    142. D(C   9,C   8,C   6,H  14)    -74.0358         0.011121   
    143. D(C   9,C   8,C   6,O   1)    169.3856         0.011121   
    144. D(C   9,C   8,C   6,C   7)     49.5871         0.011121   
    145. D(O   2,C   8,C   6,H  14)     47.0285         0.011121   
    146. D(O   2,C   8,C   6,C   7)    170.6514         0.011121   
    147. D(O   2,C   8,C   6,O   1)    -69.5501         0.011121   
    148. D(H  16,C   8,C   6,O   1)     47.3625         0.011121   
    149. D(C   9,C   8,O   2,H  23)    -70.6389         0.019100   
    150. D(H  16,C   8,O   2,H  23)     50.3494         0.019100   
    151. D(C   6,C   8,O   2,H  23)    168.1769         0.019100   
    152. D(C   8,C   9,O   0,C  10)     63.7407         0.018592   
    153. D(H  17,C   9,C   8,C   6)     63.8964         0.011080   
    154. D(H  17,C   9,C   8,H  16)   -174.9594         0.011080   
    155. D(H  17,C   9,C   8,O   2)    -55.7192         0.011080   
    156. D(C  11,C   9,C   8,H  16)    -54.0552         0.011080   
    157. D(C  11,C   9,C   8,C   6)   -175.1994         0.011080   
    158. D(C  11,C   9,C   8,O   2)     65.1850         0.011080   
    159. D(O   0,C   9,C   8,H  16)     65.0245         0.011080   
    160. D(O   0,C   9,C   8,C   6)    -56.1197         0.011080   
    161. D(O   0,C   9,C   8,O   2)   -175.7353         0.011080   
    162. D(H  17,C   9,O   0,C  10)    -57.6118         0.018592   
    163. D(C  11,C   9,O   0,C  10)   -174.1215         0.018592   
    164. D(N  41,C  10,C   7,H  15)     50.9709         0.010948   
    165. D(N  41,C  10,C   7,C   6)    170.9802         0.010948   
    166. D(N  41,C  10,C   7,N   5)    -66.3610         0.010948   
    167. D(H  18,C  10,C   7,H  15)    171.3447         0.010948   
    168. D(H  18,C  10,C   7,C   6)    -68.6461         0.010948   
    169. D(H  18,C  10,C   7,N   5)     54.0128         0.010948   
    170. D(O   0,C  10,C   7,H  15)    -66.7058         0.010948   
    171. D(O   0,C  10,C   7,C   6)     53.3035         0.010948   
    172. D(O   0,C  10,C   7,N   5)    175.9624         0.010948   
    173. D(N  41,C  10,O   0,C   9)   -179.9242         0.018892   
    174. D(H  18,C  10,O   0,C   9)     60.5230         0.018892   
    175. D(C   7,C  10,O   0,C   9)    -62.3516         0.018892   
    176. D(H  19,C  11,C   9,C   8)     60.8583         0.011511   
    177. D(H  19,C  11,C   9,O   0)    -59.6600         0.011511   
    178. D(O   3,C  11,C   9,H  17)    -57.9346         0.011511   
    179. D(O   3,C  11,C   9,C   8)    179.5260         0.011511   
    180. D(O   3,C  11,C   9,O   0)     59.0077         0.011511   
    181. D(H  19,C  11,O   3,H  24)     62.5264         0.020465   
    182. D(C   9,C  11,O   3,H  24)    -58.4409         0.020465   
    183. D(H  19,C  11,C   9,H  17)   -176.6023         0.011511   
    184. D(H  20,C  11,O   3,H  24)   -179.9936         0.020465   
    185. D(H  20,C  11,C   9,H  17)     61.1992         0.011511   
    186. D(H  20,C  11,C   9,C   8)    -61.3402         0.011511   
    187. D(H  20,C  11,C   9,O   0)    178.1415         0.011511   
    188. D(C  13,C  12,N   5,H  21)      3.3297         0.026355   
    189. D(C  13,C  12,N   5,C   7)    178.9392         0.026355   
    190. D(O   4,C  12,N   5,H  21)   -175.5941         0.026355   
    191. D(O   4,C  12,N   5,C   7)      0.0155         0.026355   
    192. D(H  27,C  13,C  12,N   5)     46.8053         0.012395   
    193. D(H  27,C  13,C  12,O   4)   -134.2201         0.012395   
    194. D(H  26,C  13,C  12,N   5)    -73.7613         0.012395   
    195. D(H  26,C  13,C  12,O   4)    105.2133         0.012395   
    196. D(H  25,C  13,C  12,N   5)    166.4164         0.012395   
    197. D(H  25,C  13,C  12,O   4)    -14.6089         0.012395   
    198. D(H  37,C  29,C  28,H  36)     59.9916         0.010340   
    199. D(H  37,C  29,C  28,H  35)   -179.9793         0.010340   
    200. D(H  37,C  29,C  28,C  34)    -59.9909         0.010340   
    201. D(N  31,C  29,C  28,H  36)    -60.0259         0.010340   
    202. D(N  31,C  29,C  28,H  35)     60.0032         0.010340   
    203. D(N  31,C  29,C  28,C  34)    179.9916         0.010340   
    204. D(C  30,C  29,C  28,H  36)    179.9918         0.010340   
    205. D(C  30,C  29,C  28,H  35)    -59.9790         0.010340   
    206. D(C  30,C  29,C  28,C  34)     60.0094         0.010340   
    207. D(O  33,C  30,C  29,H  37)     -7.2383         0.009716   
    208. D(O  33,C  30,C  29,N  31)    112.7566         0.009716   
    209. D(O  33,C  30,C  29,C  28)   -127.2414         0.009716   
    210. D(O  32,C  30,C  29,H  37)    174.5641         0.009716   
    211. D(O  32,C  30,C  29,N  31)    -65.4410         0.009716   
    212. D(O  32,C  30,C  29,C  28)     54.5610         0.009716   
    213. D(H  39,N  31,C  29,H  37)    -60.0786         0.014738   
    214. D(H  39,N  31,C  29,C  30)    179.9336         0.014738   
    215. D(H  39,N  31,C  29,C  28)     59.9345         0.014738   
    216. D(H  38,N  31,C  29,H  37)     60.0728         0.014738   
    217. D(H  38,N  31,C  29,C  30)    -59.9150         0.014738   
    218. D(H  38,N  31,C  29,C  28)   -179.9141         0.014738   
    219. D(H  40,O  33,C  30,O  32)     56.0851         0.016691   
    220. D(H  40,O  33,C  30,C  29)   -122.1127         0.016691   
    221. D(O  42,C  34,C  28,H  36)   -124.6167         0.009708   
    222. D(O  42,C  34,C  28,H  35)    115.3640         0.009708   
    223. D(O  42,C  34,C  28,C  29)     -4.6255         0.009708   
    224. D(N  41,C  34,C  28,H  36)     53.5530         0.009708   
    225. D(N  41,C  34,C  28,H  35)    -66.4663         0.009708   
    226. D(N  41,C  34,C  28,C  29)    173.5441         0.009708   
    227. D(H  43,N  41,C  34,O  42)   -127.7524         0.013651   
    228. D(H  43,N  41,C  34,C  28)     54.0772         0.013651   
    229. D(C  10,N  41,C  34,O  42)      0.7521         0.013651   
    230. D(C  10,N  41,C  34,C  28)   -177.4182         0.013651   
    231. D(H  43,N  41,C  10,H  18)   -158.2454         0.014836   
    232. D(H  43,N  41,C  10,C   7)    -36.9971         0.014836   
    233. D(H  43,N  41,C  10,O   0)     82.3180         0.014836   
    234. D(C  34,N  41,C  10,H  18)     69.4008         0.014836   
    235. D(C  34,N  41,C  10,C   7)   -169.3509         0.014836   
    236. D(C  34,N  41,C  10,O   0)    -50.0358         0.014836   
    -----------------------------------------------------------------

Number of atoms                         .... 44
Number of degrees of freedom            .... 236

         *************************************************************
         *                GEOMETRY OPTIMIZATION CYCLE   1            *
         *************************************************************
---------------------------------
CARTESIAN COORDINATES (ANGSTROEM)
---------------------------------
  O      1.538424   -1.192694    0.298904
  O     -0.953876    2.067406    0.329604
  O      1.809624    2.397406   -0.418796
  O      4.252024   -1.090994   -0.101396
  O     -3.328776    0.459006    1.152704
  N     -2.014276   -0.531694   -0.492996
  C     -0.159476    1.045906   -0.276796
  C     -0.724476   -0.318294    0.130304
  C      1.291724    1.212106    0.179504
  C      2.128724   -0.003094   -0.228096
  C      0.241724   -1.449594   -0.237596
  C      3.554024    0.070306    0.310204
  C     -3.205876   -0.121794    0.077504
  C     -4.392276   -0.444994   -0.790796
  H     -0.233576    1.192706   -1.361396
  H     -0.885476   -0.327494    1.217204
  H      1.313624    1.349806    1.268204
  H      2.182824   -0.092094   -1.321596
  H      0.311224   -1.573894   -1.325896
  H      3.568924    0.100206    1.404804
  H      4.090924    0.941506   -0.074196
  H     -2.031376   -0.944494   -1.421496
  H     -0.899576    1.959906    1.294504
  H      2.655024    2.603406    0.013804
  H      3.769624   -1.861894    0.243404
  H     -5.313176   -0.330694   -0.212396
  H     -4.415276    0.238106   -1.644196
  H     -4.331976   -1.476194   -1.150496
  C     -1.428404   -4.750331    1.464382
  C     -1.164740   -6.256421    1.655420
  C      0.075480   -6.451574    2.548170
  N     -2.332253   -6.881494    2.295563
  O      0.126898   -5.920449    3.645491
  O      1.149889   -7.286557    2.106957
  C     -0.205592   -4.095329    0.794088
  H     -1.600897   -4.290094    2.426881
  H     -2.298402   -4.613657    0.837951
  H     -0.991896   -6.716706    0.693292
  H     -2.159096   -7.869391    2.422365
  H     -3.147021   -6.753082    1.711042
  H      1.295711   -7.987234    2.747129
  N     -0.263683   -2.687256    0.373677
  O      0.799396   -4.753856    0.581670
  H     -0.539244   -2.111523    1.157608

----------------------------
CARTESIAN COORDINATES (A.U.)
----------------------------
  NO LB      ZA    FRAG     MASS         X           Y           Z
   0 O     8.0000    0    15.999    2.907201   -2.253864    0.564847
   1 O     8.0000    0    15.999   -1.802564    3.906832    0.622861
   2 O     8.0000    0    15.999    3.419694    4.530442   -0.791410
   3 O     8.0000    0    15.999    8.035161   -2.061679   -0.191611
   4 O     8.0000    0    15.999   -6.290474    0.867397    2.178295
   5 N     7.0000    0    14.007   -3.806429   -1.004755   -0.931627
   6 C     6.0000    0    12.011   -0.301365    1.976477   -0.523069
   7 C     6.0000    0    12.011   -1.369061   -0.601488    0.246239
   8 C     6.0000    0    12.011    2.441005    2.290549    0.339213
   9 C     6.0000    0    12.011    4.022706   -0.005846   -0.431039
  10 C     6.0000    0    12.011    0.456793   -2.739335   -0.448991
  11 C     6.0000    0    12.011    6.716133    0.132860    0.586201
  12 C     6.0000    0    12.011   -6.058227   -0.230156    0.146461
  13 C     6.0000    0    12.011   -8.300198   -0.840916   -1.494388
  14 H     1.0000    0     1.008   -0.441394    2.253889   -2.572666
  15 H     1.0000    0     1.008   -1.673307   -0.618873    2.300182
  16 H     1.0000    0     1.008    2.482390    2.550765    2.396558
  17 H     1.0000    0     1.008    4.124940   -0.174032   -2.497454
  18 H     1.0000    0     1.008    0.588129   -2.974228   -2.505580
  19 H     1.0000    0     1.008    6.744290    0.189363    2.654695
  20 H     1.0000    0     1.008    7.730727    1.779189   -0.140210
  21 H     1.0000    0     1.008   -3.838744   -1.784834   -2.686238
  22 H     1.0000    0     1.008   -1.699952    3.703686    2.446258
  23 H     1.0000    0     1.008    5.017269    4.919725    0.026086
  24 H     1.0000    0     1.008    7.123558   -3.518469    0.459967
  25 H     1.0000    0     1.008  -10.040447   -0.624920   -0.401370
  26 H     1.0000    0     1.008   -8.343662    0.449956   -3.107080
  27 H     1.0000    0     1.008   -8.186248   -2.789602   -2.174122
  28 C     6.0000    0    12.011   -2.699293   -8.976825    2.767281
  29 C     6.0000    0    12.011   -2.201040  -11.822923    3.128290
  30 C     6.0000    0    12.011    0.142636  -12.191707    4.815343
  31 N     7.0000    0    14.007   -4.407320  -13.004140    4.337985
  32 O     8.0000    0    15.999    0.239802  -11.188028    6.888981
  33 O     8.0000    0    15.999    2.172976  -13.769597    3.981573
  34 C     6.0000    0    12.011   -0.388513   -7.739050    1.500610
  35 H     1.0000    0     1.008   -3.025258   -8.107103    4.586141
  36 H     1.0000    0     1.008   -4.343350   -8.718547    1.583499
  37 H     1.0000    0     1.008   -1.874412  -12.692736    1.310132
  38 H     1.0000    0     1.008   -4.080099  -14.870994    4.577607
  39 H     1.0000    0     1.008   -5.947007  -12.761476    3.233401
  40 H     1.0000    0     1.008    2.448539  -15.093685    5.191322
  41 N     7.0000    0    14.007   -0.498288   -5.078178    0.706148
  42 O     8.0000    0    15.999    1.510639   -8.983485    1.099198
  43 H     1.0000    0     1.008   -1.019024   -3.990200    2.187562

--------------------------------
INTERNAL COORDINATES (ANGSTROEM)
--------------------------------
 O      0   0   0     0.000000000000     0.00000000     0.00000000
 O      1   0   0     4.103748748401     0.00000000     0.00000000
 O      2   1   0     2.882001875433    60.44034292     0.00000000
 O      1   2   3     2.744851169007   124.89434694     7.17720891
 O      2   1   3     2.984056665012    93.28017109   178.89777775
 N      5   2   1     2.327600745403    65.47635457   316.84887990
 C      2   1   3     1.429074725128    24.68391537    71.85624274
 C      6   5   2     1.448318504335    97.81286912    47.14528735
 C      3   2   1     1.425173459618    56.44756458   348.17847775
 C      1   2   3     1.428751640419    65.93539925   353.07942084
 C      1   2   3     1.426625651669    66.03716675   221.62681613
 C      4   1   2     1.416063646168    60.04577492    20.09370926
 C      5   2   1     1.228205231222    86.20285914   296.16063769
 C     13   5   2     1.505306643179   121.84569509   223.10734060
 H      7   2   1     1.096995082031   106.63852229   180.58896879
 H      8   6   5     1.098798093373   107.09642494    30.18633241
 H      9   3   2     1.097592178361   107.74709994   274.01738362
 H     10   1   2     1.098448933724   108.66769935   254.42656390
 H     11   1   2     1.097578074672   109.61646279   108.43446256
 H     12   4   1     1.095109665741   107.83122391    91.49987075
 H     12   4   1     1.093167146414   108.01528706   208.97984180
 H      6   5   2     1.016271863233   144.03322172   233.71019033
 H      2   1   3     0.972387139981    83.43582649   251.57034196
 H      3   2   1     0.971740664992   137.97751886   269.02936955
 H      4   1   2     0.972565478515    55.14986263   165.85694924
 H     14  13   5     1.093465984839   109.64565663   345.39109040
 H     14  13   5     1.093364609817   109.43061533   105.21334793
 H     14  13   5     1.093797796670   110.40546424   225.77990141
 C     11   1   2     4.071968512377   111.19750283   230.79015188
 C     29  11   1     1.540883531126   140.70853601   301.21509752
 C     30  29  11     1.540530162559   109.47654476    65.94693361
 N     30  29  11     1.470913056748   109.48126782   185.92915566
 O     31  30  29     1.220185212261   119.99604251    54.56099013
 O     31  30  29     1.430461684133   119.99177204   232.75861090
 C     29  11   1     1.540646455756    31.56875347   311.95018190
 H     29  11   1     1.080729906539    95.30813187    71.14691197
 H     29  11   1     1.080736262871    89.16293851   180.65850043
 H     30  29  11     1.080475279868   109.47264057   305.94665526
 H     32  30  29     1.010941388733   109.50584059   180.08588911
 H     32  30  29     1.010940360677   109.51779465    59.93450114
 H     34  31  30     0.960225097911   109.53403103   237.88730777
 N     11   1   2     1.469999999137   107.92293948   227.98722999
 O     35  29  11     1.220155543373   120.00151064   182.56263904
 H     42  11   1     1.010915383742    86.36958914    82.31802843

---------------------------
INTERNAL COORDINATES (A.U.)
---------------------------
 O      0   0   0     0.000000000000     0.00000000     0.00000000
 O      1   0   0     7.754961256899     0.00000000     0.00000000
 O      2   1   0     5.446194262016    60.44034292     0.00000000
 O      1   2   3     5.187016987797   124.89434694     7.17720891
 O      2   1   3     5.639049864974    93.28017109   178.89777775
 N      5   2   1     4.398527957922    65.47635457   316.84887990
 C      2   1   3     2.700559855401    24.68391537    71.85624274
 C      6   5   2     2.736925327884    97.81286912    47.14528735
 C      3   2   1     2.693187532011    56.44756458   348.17847775
 C      1   2   3     2.699949313783    65.93539925   353.07942084
 C      1   2   3     2.695931777281    66.03716675   221.62681613
 C      4   1   2     2.675972479460    60.04577492    20.09370926
 C      5   2   1     2.320971523258    86.20285914   296.16063769
 C     13   5   2     2.844617303181   121.84569509   223.10734060
 H      7   2   1     2.073020275297   106.63852229   180.58896879
 H      8   6   5     2.076427472950   107.09642494    30.18633241
 H      9   3   2     2.074148623837   107.74709994   274.01738362
 H     10   1   2     2.075767656837   108.66769935   254.42656390
 H     11   1   2     2.074121971726   109.61646279   108.43446256
 H     12   4   1     2.069457354861   107.83122391    91.49987075
 H     12   4   1     2.065786525324   108.01528706   208.97984180
 H      6   5   2     1.920475499121   144.03322172   233.71019033
 H      2   1   3     1.837545390711    83.43582649   251.57034196
 H      3   2   1     1.836323730030   137.97751886   269.02936955
 H      4   1   2     1.837882401700    55.14986263   165.85694924
 H     14  13   5     2.066351248104   109.64565663   345.39109040
 H     14  13   5     2.066159677076   109.43061533   105.21334793
 H     14  13   5     2.066978281593   110.40546424   225.77990141
 C     11   1   2     7.694905314343   111.19750283   230.79015188
 C     29  11   1     2.911847878098   140.70853601   301.21509752
 C     30  29  11     2.911180108281   109.47654476    65.94693361
 N     30  29  11     2.779622844062   109.48126782   185.92915566
 O     31  30  29     2.305815883833   119.99604251    54.56099013
 O     31  30  29     2.703180828079   119.99177204   232.75861090
 C     29  11   1     2.911399870575    31.56875347   311.95018190
 H     29  11   1     2.042283548096    95.30813187    71.14691197
 H     29  11   1     2.042295559824    89.16293851   180.65850043
 H     30  29  11     2.041802373422   109.47264057   305.94665526
 H     32  30  29     1.910402362151   109.50584059   180.08588911
 H     32  30  29     1.910400419406   109.51779465    59.93450114
 H     34  31  30     1.814562461970   109.53403103   237.88730777
 N     11   1   2     2.777897415234   107.92293948   227.98722999
 O     35  29  11     2.305759817762   120.00151064   182.56263904
 H     42  11   1     1.910353219841    86.36958914    82.31802843

---------------------
BASIS SET INFORMATION
---------------------
There are 4 groups of distinct atoms

 Group   1 Type O   : 7s4p1d contracted to 3s2p1d pattern {511/31/1}
 Group   2 Type N   : 7s4p1d contracted to 3s2p1d pattern {511/31/1}
 Group   3 Type C   : 7s4p1d contracted to 3s2p1d pattern {511/31/1}
 Group   4 Type H   : 4s1p contracted to 2s1p pattern {31/1}

Atom   0O    basis set group =>   1
Atom   1O    basis set group =>   1
Atom   2O    basis set group =>   1
Atom   3O    basis set group =>   1
Atom   4O    basis set group =>   1
Atom   5N    basis set group =>   2
Atom   6C    basis set group =>   3
Atom   7C    basis set group =>   3
Atom   8C    basis set group =>   3
Atom   9C    basis set group =>   3
Atom  10C    basis set group =>   3
Atom  11C    basis set group =>   3
Atom  12C    basis set group =>   3
Atom  13C    basis set group =>   3
Atom  14H    basis set group =>   4
Atom  15H    basis set group =>   4
Atom  16H    basis set group =>   4
Atom  17H    basis set group =>   4
Atom  18H    basis set group =>   4
Atom  19H    basis set group =>   4
Atom  20H    basis set group =>   4
Atom  21H    basis set group =>   4
Atom  22H    basis set group =>   4
Atom  23H    basis set group =>   4
Atom  24H    basis set group =>   4
Atom  25H    basis set group =>   4
Atom  26H    basis set group =>   4
Atom  27H    basis set group =>   4
Atom  28C    basis set group =>   3
Atom  29C    basis set group =>   3
Atom  30C    basis set group =>   3
Atom  31N    basis set group =>   2
Atom  32O    basis set group =>   1
Atom  33O    basis set group =>   1
Atom  34C    basis set group =>   3
Atom  35H    basis set group =>   4
Atom  36H    basis set group =>   4
Atom  37H    basis set group =>   4
Atom  38H    basis set group =>   4
Atom  39H    basis set group =>   4
Atom  40H    basis set group =>   4
Atom  41N    basis set group =>   2
Atom  42O    basis set group =>   1
Atom  43H    basis set group =>   4
---------------------------------
AUXILIARY/J BASIS SET INFORMATION
---------------------------------
There are 4 groups of distinct atoms

 Group   1 Type O   : 12s5p4d2f1g contracted to 6s4p3d1f1g pattern {711111/2111/211/2/1}
 Group   2 Type N   : 12s5p4d2f1g contracted to 6s4p3d1f1g pattern {711111/2111/211/2/1}
 Group   3 Type C   : 12s5p4d2f1g contracted to 6s4p3d1f1g pattern {711111/2111/211/2/1}
 Group   4 Type H   : 5s2p1d contracted to 3s1p1d pattern {311/2/1}

Atom   0O    basis set group =>   1
Atom   1O    basis set group =>   1
Atom   2O    basis set group =>   1
Atom   3O    basis set group =>   1
Atom   4O    basis set group =>   1
Atom   5N    basis set group =>   2
Atom   6C    basis set group =>   3
Atom   7C    basis set group =>   3
Atom   8C    basis set group =>   3
Atom   9C    basis set group =>   3
Atom  10C    basis set group =>   3
Atom  11C    basis set group =>   3
Atom  12C    basis set group =>   3
Atom  13C    basis set group =>   3
Atom  14H    basis set group =>   4
Atom  15H    basis set group =>   4
Atom  16H    basis set group =>   4
Atom  17H    basis set group =>   4
Atom  18H    basis set group =>   4
Atom  19H    basis set group =>   4
Atom  20H    basis set group =>   4
Atom  21H    basis set group =>   4
Atom  22H    basis set group =>   4
Atom  23H    basis set group =>   4
Atom  24H    basis set group =>   4
Atom  25H    basis set group =>   4
Atom  26H    basis set group =>   4
Atom  27H    basis set group =>   4
Atom  28C    basis set group =>   3
Atom  29C    basis set group =>   3
Atom  30C    basis set group =>   3
Atom  31N    basis set group =>   2
Atom  32O    basis set group =>   1
Atom  33O    basis set group =>   1
Atom  34C    basis set group =>   3
Atom  35H    basis set group =>   4
Atom  36H    basis set group =>   4
Atom  37H    basis set group =>   4
Atom  38H    basis set group =>   4
Atom  39H    basis set group =>   4
Atom  40H    basis set group =>   4
Atom  41N    basis set group =>   2
Atom  42O    basis set group =>   1
Atom  43H    basis set group =>   4
------------------------------------------------------------------------------
                           ORCA GTO INTEGRAL CALCULATION
                           -- RI-GTO INTEGRALS CHOSEN --
------------------------------------------------------------------------------
------------------------------------------------------------------------------
                   ___                                                        
                  /   \      - P O W E R E D   B Y -                         
                 /     \                                                     
                 |  |  |   _    _      __       _____    __    __             
                 |  |  |  | |  | |    /  \     |  _  \  |  |  /  |          
                  \  \/   | |  | |   /    \    | | | |  |  | /  /          
                 / \  \   | |__| |  /  /\  \   | |_| |  |  |/  /          
                |  |  |   |  __  | /  /__\  \  |    /   |      \           
                |  |  |   | |  | | |   __   |  |    \   |  |\   \          
                \     /   | |  | | |  |  |  |  | |\  \  |  | \   \       
                 \___/    |_|  |_| |__|  |__|  |_| \__\ |__|  \__/        
                                                                              
                      - O R C A' S   B I G   F R I E N D -                    
                                      &                                       
                       - I N T E G R A L  F E E D E R -                       
                                                                              
 v1 FN, 2020, v2 2021                                                         
------------------------------------------------------------------------------


Reading SHARK input file /home/friday_code/Desktop/DP2/tmp.SHARKINP.tmp ... ok
----------------------
SHARK INTEGRAL PACKAGE
----------------------

Number of atoms                             ...     44
Number of basis functions                   ...    427
Number of shells                            ...    201
Maximum angular momentum                    ...      2
Integral batch strategy                     ... SHARK/LIBINT Hybrid
RI-J (if used) integral strategy            ... SPLIT-RIJ (Revised 2003 algorithm where possible)
Printlevel                                  ...      1
Contraction scheme used                     ... SEGMENTED contraction
Coulomb Range Separation                    ... NOT USED
Exchange Range Separation                   ... NOT USED
Finite Nucleus Model                        ... NOT USED
Auxiliary Coulomb fitting basis             ... AVAILABLE
   # of basis functions in Aux-J            ...   1358
   # of shells in Aux-J                     ...    450
   Maximum angular momentum in Aux-J        ...      4
Auxiliary J/K fitting basis                 ... NOT available
Auxiliary Correlation fitting basis         ... NOT available
Auxiliary 'external' fitting basis          ... NOT available
Integral threshold                          ...     2.500000e-11
Primitive cut-off                           ...     2.500000e-12
Primitive pair pre-selection threshold      ...     2.500000e-12

Calculating pre-screening integrals         ... done (  0.1 sec) Dimension = 201
Organizing shell pair data                  ... done (  0.1 sec)
Shell pair information
Total number of shell pairs                 ...     20301
Shell pairs after pre-screening             ...     13583
Total number of primitive shell pairs       ...     73133
Primitive shell pairs kept                  ...     30978
          la=0 lb=0:   4342 shell pairs
          la=1 lb=0:   5103 shell pairs
          la=1 lb=1:   1540 shell pairs
          la=2 lb=0:   1551 shell pairs
          la=2 lb=1:    910 shell pairs
          la=2 lb=2:    137 shell pairs

Calculating one electron integrals          ... done (  0.1 sec)
Calculating RI/J V-Matrix + Cholesky decomp.... done (  0.1 sec)
Calculating Nuclear repulsion               ... done (  0.0 sec) ENN=   2097.057383950425 Eh

SHARK setup successfully completed in   0.4 seconds

Maximum memory used throughout the entire GTOINT-calculation: 77.6 MB
-------------------------------------------------------------------------------
                                 ORCA SCF
-------------------------------------------------------------------------------

------------
SCF SETTINGS
------------
Hamiltonian:
 Density Functional     Method          .... DFT(GTOs)
 Exchange Functional    Exchange        .... B88
   X-Alpha parameter    XAlpha          ....  0.666667
   Becke's b parameter  XBeta           ....  0.004200
 Correlation Functional Correlation     .... LYP
 LDA part of GGA corr.  LDAOpt          .... VWN-5
 Gradients option       PostSCFGGA      .... off
 Hybrid DFT is turned on
   Fraction HF Exchange ScalHFX         ....  0.200000
   Scaling of DF-GGA-X  ScalDFX         ....  0.720000
   Scaling of DF-GGA-C  ScalDFC         ....  0.810000
   Scaling of DF-LDA-C  ScalLDAC        ....  1.000000
   Perturbative correction              ....  0.000000
   Density functional embedding theory  .... OFF
   NL short-range parameter             ....  4.800000
 RI-approximation to the Coulomb term is turned on
   Number of AuxJ basis functions       .... 1358
   RIJ-COSX (HFX calculated with COS-X)).... on


General Settings:
 Integral files         IntName         .... /home/friday_code/Desktop/DP2/tmp
 Hartree-Fock type      HFTyp           .... RHF
 Total Charge           Charge          ....    0
 Multiplicity           Mult            ....    1
 Number of Electrons    NEL             ....  178
 Basis Dimension        Dim             ....  427
 Nuclear Repulsion      ENuc            ....   2097.0573839504 Eh

Convergence Acceleration:
 DIIS                   CNVDIIS         .... on
   Start iteration      DIISMaxIt       ....    12
   Startup error        DIISStart       ....  0.200000
   # of expansion vecs  DIISMaxEq       ....     5
   Bias factor          DIISBfac        ....   1.050
   Max. coefficient     DIISMaxC        ....  10.000
 Trust-Rad. Augm. Hess. CNVTRAH         .... auto
   Auto Start mean grad. ratio tolernc. ....  1.125000
   Auto Start start iteration           ....    20
   Auto Start num. interpolation iter.  ....    10
   Max. Number of Micro iterations      ....    16
   Max. Number of Macro iterations      .... Maxiter - #DIIS iter
   Number of Davidson start vectors     ....     2
   Converg. threshold I  (grad. norm)   ....   1.000e-05
   Converg. threshold II (energy diff.) ....   1.000e-08
   Grad. Scal. Fac. for Micro threshold ....   0.100
   Minimum threshold for Micro iter.    ....   0.010
   NR start threshold (gradient norm)   ....   0.001
   Initial trust radius                 ....   0.400
   Minimum AH scaling param. (alpha)    ....   1.000
   Maximum AH scaling param. (alpha)    .... 1000.000
   Orbital update algorithm             .... Taylor
   White noise on init. David. guess    .... on
   Maximum white noise                  ....   0.010
   Quad. conv. algorithm                .... NR
 SOSCF                  CNVSOSCF        .... on
   Start iteration      SOSCFMaxIt      ....   150
   Startup grad/error   SOSCFStart      ....  0.003300
 Level Shifting         CNVShift        .... on
   Level shift para.    LevelShift      ....    0.2500
   Turn off err/grad.   ShiftErr        ....    0.0010
 Zerner damping         CNVZerner       .... off
 Static damping         CNVDamp         .... on
   Fraction old density DampFac         ....    0.7000
   Max. Damping (<1)    DampMax         ....    0.9800
   Min. Damping (>=0)   DampMin         ....    0.0000
   Turn off err/grad.   DampErr         ....    0.1000
 Fernandez-Rico         CNVRico         .... off

SCF Procedure:
 Maximum # iterations   MaxIter         ....   125
 SCF integral mode      SCFMode         .... Direct
   Integral package                     .... SHARK and LIBINT hybrid scheme
 Reset frequency        DirectResetFreq ....    20
 Integral Threshold     Thresh          ....  2.500e-11 Eh
 Primitive CutOff       TCut            ....  2.500e-12 Eh

Convergence Tolerance:
 Convergence Check Mode ConvCheckMode   .... Total+1el-Energy
 Convergence forced     ConvForced      .... 0
 Energy Change          TolE            ....  1.000e-08 Eh
 1-El. energy change                    ....  1.000e-05 Eh
 Orbital Gradient       TolG            ....  1.000e-05
 Orbital Rotation angle TolX            ....  1.000e-05
 DIIS Error             TolErr          ....  5.000e-07


Diagonalization of the overlap matrix:
Smallest eigenvalue                        ... 7.071e-04
Time for diagonalization                   ...    0.023 sec
Threshold for overlap eigenvalues          ... 1.000e-08
Number of eigenvalues below threshold      ... 0
Time for construction of square roots      ...    0.014 sec
Total time needed                          ...    0.037 sec

Time for model grid setup =    1.263 sec

------------------------------
INITIAL GUESS: MODEL POTENTIAL
------------------------------
Loading Hartree-Fock densities                     ... done
Calculating cut-offs                               ... done
Initializing the effective Hamiltonian             ... done
Setting up the integral package (SHARK)            ... done
Starting the Coulomb interaction                   ... done (   1.2 sec)
Reading the grid                                   ... done
Mapping shells                                     ... done
Starting the XC term evaluation                    ... done (   1.0 sec)
  promolecular density results
     # of electrons  =    177.988010060
     EX              =   -153.280175990
     EC              =     -6.183395517
     EX+EC           =   -159.463571507
Transforming the Hamiltonian                       ... done (   0.0 sec)
Diagonalizing the Hamiltonian                      ... done (   0.0 sec)
Back transforming the eigenvectors                 ... done (   0.0 sec)
Now organizing SCF variables                       ... done
                      ------------------
                      INITIAL GUESS DONE (   3.6 sec)
                      ------------------
-------------------
DFT GRID GENERATION
-------------------

General Integration Accuracy     IntAcc      ... 4.388
Radial Grid Type                 RadialGrid  ... OptM3 with GC (2021)
Angular Grid (max. ang.)         AngularGrid ... 4 (Lebedev-302)
Angular grid pruning method      GridPruning ... 4 (adaptive)
Weight generation scheme         WeightScheme... Becke
Basis function cutoff            BFCut       ... 1.0000e-11
Integration weight cutoff        WCut        ... 1.0000e-14
Angular grids for H and He will be reduced by one unit
Partially contracted basis set               ... off
Rotationally invariant grid construction     ... off

Total number of grid points                  ...   204615
Total number of batches                      ...     3220
Average number of points per batch           ...       63
Average number of grid points per atom       ...     4650
Time for grid setup =    4.065 sec

--------------------
COSX GRID GENERATION
--------------------

GRIDX 1
-------
General Integration Accuracy     IntAcc      ... 3.816
Radial Grid Type                 RadialGrid  ... OptM3 with GC (2021)
Angular Grid (max. ang.)         AngularGrid ... 1 (Lebedev-50)
Angular grid pruning method      GridPruning ... 4 (adaptive)
Weight generation scheme         WeightScheme... Becke
Basis function cutoff            BFCut       ... 1.0000e-11
Integration weight cutoff        WCut        ... 1.0000e-14
Angular grids for H and He will be reduced by one unit
Partially contracted basis set               ... on
Rotationally invariant grid construction     ... off

Total number of grid points                  ...    25994
Total number of batches                      ...      431
Average number of points per batch           ...       60
Average number of grid points per atom       ...      591
UseSFitting                                  ... on

GRIDX 2
-------
General Integration Accuracy     IntAcc      ... 4.020
Radial Grid Type                 RadialGrid  ... OptM3 with GC (2021)
Angular Grid (max. ang.)         AngularGrid ... 2 (Lebedev-110)
Angular grid pruning method      GridPruning ... 4 (adaptive)
Weight generation scheme         WeightScheme... Becke
Basis function cutoff            BFCut       ... 1.0000e-11
Integration weight cutoff        WCut        ... 1.0000e-14
Angular grids for H and He will be reduced by one unit
Partially contracted basis set               ... on
Rotationally invariant grid construction     ... off

Total number of grid points                  ...    55975
Total number of batches                      ...      898
Average number of points per batch           ...       62
Average number of grid points per atom       ...     1272
UseSFitting                                  ... on

GRIDX 3
-------
General Integration Accuracy     IntAcc      ... 4.338
Radial Grid Type                 RadialGrid  ... OptM3 with GC (2021)
Angular Grid (max. ang.)         AngularGrid ... 3 (Lebedev-194)
Angular grid pruning method      GridPruning ... 4 (adaptive)
Weight generation scheme         WeightScheme... Becke
Basis function cutoff            BFCut       ... 1.0000e-11
Integration weight cutoff        WCut        ... 1.0000e-14
Angular grids for H and He will be reduced by one unit
Partially contracted basis set               ... on
Rotationally invariant grid construction     ... off

Total number of grid points                  ...   122227
Total number of batches                      ...     1931
Average number of points per batch           ...       63
Average number of grid points per atom       ...     2778
UseSFitting                                  ... on

Time for X-Grid setup             =    5.502 sec

--------------
SCF ITERATIONS
--------------
ITER       Energy         Delta-E        Max-DP      RMS-DP      [F,P]     Damp
               ***  Starting incremental Fock matrix formation  ***
  0  -1233.4916984745   0.000000000000 0.13508608  0.00226832  0.2720323 0.7000
  1  -1233.8909286859  -0.399230211397 0.08581173  0.00142770  0.1088778 0.7000
                               ***Turning on DIIS***
  2  -1234.0259901208  -0.135061434930 0.08893736  0.00188760  0.0400086 0.0000
  3  -1234.2671921361  -0.241202015233 0.07397346  0.00102566  0.0628616 0.0000
  4  -1234.3087377824  -0.041545646337 0.01391517  0.00026397  0.0155041 0.0000
  5  -1234.3121385159  -0.003400733480 0.00409820  0.00007878  0.0041370 0.0000
                      *** Initiating the SOSCF procedure ***
                           *** Shutting down DIIS ***
                      *** Re-Reading the Fockian *** 
                      *** Removing any level shift *** 
ITER      Energy       Delta-E        Grad      Rot      Max-DP    RMS-DP
  6  -1234.31224680  -0.0001082874  0.000258  0.000258  0.001634  0.000029
               *** Restarting incremental Fock matrix formation ***
  7  -1234.31222607   0.0000207349  0.000093  0.000278  0.001019  0.000018
  8  -1234.31222611  -0.0000000418  0.000146  0.000164  0.000590  0.000009
  9  -1234.31222877  -0.0000026614  0.000034  0.000066  0.000175  0.000003
 10  -1234.31222874   0.0000000272  0.000043  0.000053  0.000103  0.000001
 11  -1234.31222885  -0.0000001050  0.000016  0.000041  0.000055  0.000001
 12  -1234.31222884   0.0000000139  0.000022  0.000023  0.000032  0.000001
                  ***Gradient check signals convergence***
              ***Rediagonalizing the Fockian in SOSCF/NRSCF***

               *****************************************************
               *                     SUCCESS                       *
               *           SCF CONVERGED AFTER  13 CYCLES          *
               *****************************************************

Old exchange energy                            =    -31.042774872 Eh
New exchange energy                            =    -31.042823846 Eh
Exchange energy change after final integration =     -0.000048975 Eh
Total energy after final integration           =  -1234.312277826 Eh
Final COS-X integration done in                =    68.828 sec

----------------
TOTAL SCF ENERGY
----------------

Total Energy       :        -1234.31227783 Eh          -33587.34463 eV

Components:
Nuclear Repulsion  :         2097.05738395 Eh           57063.83249 eV
Electronic Energy  :        -3331.36966178 Eh          -90651.17711 eV
One Electron Energy:        -5858.43508249 Eh         -159416.12315 eV
Two Electron Energy:         2527.06542072 Eh           68764.94604 eV
Max COSX asymmetry :            0.00000556 Eh               0.00015 eV

Virial components:
Potential Energy   :        -2458.16485191 Eh          -66890.06625 eV
Kinetic Energy     :         1223.85257408 Eh           33302.72162 eV
Virial Ratio       :            2.00854654


DFT components:
N(Alpha)           :       88.999939278733 electrons
N(Beta)            :       88.999939278733 electrons
N(Total)           :      177.999878557466 electrons
E(X)               :     -123.479326314143 Eh       
E(C)               :       -7.267439285067 Eh       
E(XC)              :     -130.746765599210 Eh       
DFET-embed. en.    :        0.000000000000 Eh       

---------------
SCF CONVERGENCE
---------------

  Last Energy change         ...   -1.5927e-08  Tolerance :   1.0000e-08
  Last MAX-Density change    ...    3.9968e-15  Tolerance :   1.0000e-07
  Last RMS-Density change    ...    3.9011e-17  Tolerance :   5.0000e-09
  Last Orbital Gradient      ...    1.0508e-06  Tolerance :   1.0000e-05
  Last Orbital Rotation      ...    2.8937e-06  Tolerance :   1.0000e-05

             **** THE GBW FILE WAS UPDATED (/home/friday_code/Desktop/DP2/tmp.gbw) ****
             **** DENSITY /home/friday_code/Desktop/DP2/tmp.scfp WAS UPDATED ****
             **** ENERGY FILE WAS UPDATED (/home/friday_code/Desktop/DP2/tmp.en.tmp) ****
             **** THE GBW FILE WAS UPDATED (/home/friday_code/Desktop/DP2/tmp.gbw) ****
             **** DENSITY /home/friday_code/Desktop/DP2/tmp.scfp WAS UPDATED ****
----------------
ORBITAL ENERGIES
----------------

  NO   OCC          E(Eh)            E(eV) 
   0   2.0000     -19.160415      -521.3814 
   1   2.0000     -19.153799      -521.2014 
   2   2.0000     -19.142824      -520.9027 
   3   2.0000     -19.129233      -520.5329 
   4   2.0000     -19.129043      -520.5277 
   5   2.0000     -19.127549      -520.4871 
   6   2.0000     -19.121490      -520.3222 
   7   2.0000     -19.102682      -519.8104 
   8   2.0000     -14.363659      -390.8550 
   9   2.0000     -14.343267      -390.3001 
  10   2.0000     -14.320480      -389.6801 
  11   2.0000     -10.320213      -280.8273 
  12   2.0000     -10.318706      -280.7863 
  13   2.0000     -10.306649      -280.4582 
  14   2.0000     -10.291757      -280.0529 
  15   2.0000     -10.249046      -278.8907 
  16   2.0000     -10.248883      -278.8863 
  17   2.0000     -10.247040      -278.8361 
  18   2.0000     -10.244820      -278.7757 
  19   2.0000     -10.238992      -278.6171 
  20   2.0000     -10.238138      -278.5939 
  21   2.0000     -10.215448      -277.9765 
  22   2.0000     -10.194977      -277.4194 
  23   2.0000      -1.063989       -28.9526 
  24   2.0000      -1.061741       -28.8914 
  25   2.0000      -1.041176       -28.3319 
  26   2.0000      -1.026850       -27.9420 
  27   2.0000      -1.021679       -27.8013 
  28   2.0000      -1.003100       -27.2957 
  29   2.0000      -0.999408       -27.1953 
  30   2.0000      -0.986218       -26.8363 
  31   2.0000      -0.935309       -25.4511 
  32   2.0000      -0.902063       -24.5464 
  33   2.0000      -0.894550       -24.3420 
  34   2.0000      -0.793283       -21.5863 
  35   2.0000      -0.781453       -21.2644 
  36   2.0000      -0.765337       -20.8259 
  37   2.0000      -0.734667       -19.9913 
  38   2.0000      -0.701615       -19.0919 
  39   2.0000      -0.677600       -18.4384 
  40   2.0000      -0.652937       -17.7673 
  41   2.0000      -0.631986       -17.1972 
  42   2.0000      -0.617269       -16.7968 
  43   2.0000      -0.593540       -16.1510 
  44   2.0000      -0.586795       -15.9675 
  45   2.0000      -0.573266       -15.5994 
  46   2.0000      -0.547745       -14.9049 
  47   2.0000      -0.540571       -14.7097 
  48   2.0000      -0.530961       -14.4482 
  49   2.0000      -0.522689       -14.2231 
  50   2.0000      -0.514709       -14.0059 
  51   2.0000      -0.501484       -13.6461 
  52   2.0000      -0.488505       -13.2929 
  53   2.0000      -0.487743       -13.2722 
  54   2.0000      -0.487305       -13.2603 
  55   2.0000      -0.476775       -12.9737 
  56   2.0000      -0.467402       -12.7187 
  57   2.0000      -0.459460       -12.5025 
  58   2.0000      -0.455850       -12.4043 
  59   2.0000      -0.452639       -12.3169 
  60   2.0000      -0.445411       -12.1203 
  61   2.0000      -0.437663       -11.9094 
  62   2.0000      -0.430648       -11.7185 
  63   2.0000      -0.427508       -11.6331 
  64   2.0000      -0.422976       -11.5098 
  65   2.0000      -0.417674       -11.3655 
  66   2.0000      -0.413067       -11.2401 
  67   2.0000      -0.401684       -10.9304 
  68   2.0000      -0.399130       -10.8609 
  69   2.0000      -0.396887       -10.7998 
  70   2.0000      -0.385402       -10.4873 
  71   2.0000      -0.376303       -10.2397 
  72   2.0000      -0.367234        -9.9929 
  73   2.0000      -0.362080        -9.8527 
  74   2.0000      -0.352725        -9.5981 
  75   2.0000      -0.351423        -9.5627 
  76   2.0000      -0.343344        -9.3429 
  77   2.0000      -0.325642        -8.8612 
  78   2.0000      -0.309878        -8.4322 
  79   2.0000      -0.306893        -8.3510 
  80   2.0000      -0.294722        -8.0198 
  81   2.0000      -0.288736        -7.8569 
  82   2.0000      -0.277986        -7.5644 
  83   2.0000      -0.273482        -7.4418 
  84   2.0000      -0.264451        -7.1961 
  85   2.0000      -0.262000        -7.1294 
  86   2.0000      -0.259105        -7.0506 
  87   2.0000      -0.250875        -6.8267 
  88   2.0000      -0.247950        -6.7471 
  89   0.0000      -0.022331        -0.6077 
  90   0.0000      -0.017737        -0.4827 
  91   0.0000       0.015982         0.4349 
  92   0.0000       0.025939         0.7058 
  93   0.0000       0.034885         0.9493 
  94   0.0000       0.036565         0.9950 
  95   0.0000       0.042546         1.1577 
  96   0.0000       0.054108         1.4723 
  97   0.0000       0.061905         1.6845 
  98   0.0000       0.069156         1.8818 
  99   0.0000       0.074050         2.0150 
 100   0.0000       0.084668         2.3039 
 101   0.0000       0.087007         2.3676 
 102   0.0000       0.096959         2.6384 
 103   0.0000       0.105867         2.8808 
 104   0.0000       0.108195         2.9441 
 105   0.0000       0.116964         3.1827 
 106   0.0000       0.118140         3.2148 
 107   0.0000       0.122039         3.3208 
 108   0.0000       0.128003         3.4831 
 109   0.0000       0.130368         3.5475 
 110   0.0000       0.136674         3.7191 
 111   0.0000       0.139845         3.8054 
 112   0.0000       0.156881         4.2689 
 113   0.0000       0.160325         4.3627 
 114   0.0000       0.172218         4.6863 
 115   0.0000       0.179501         4.8845 
 116   0.0000       0.184296         5.0150 
 117   0.0000       0.193496         5.2653 
 118   0.0000       0.204759         5.5718 
 119   0.0000       0.206797         5.6272 
 120   0.0000       0.215158         5.8548 
 121   0.0000       0.219726         5.9790 
 122   0.0000       0.231848         6.3089 
 123   0.0000       0.235679         6.4132 
 124   0.0000       0.243866         6.6359 
 125   0.0000       0.251746         6.8504 
 126   0.0000       0.263903         7.1812 
 127   0.0000       0.274594         7.4721 
 128   0.0000       0.276424         7.5219 
 129   0.0000       0.296190         8.0597 
 130   0.0000       0.308064         8.3828 
 131   0.0000       0.313953         8.5431 
 132   0.0000       0.322578         8.7778 
 133   0.0000       0.334334         9.0977 
 134   0.0000       0.351620         9.5681 
 135   0.0000       0.378062        10.2876 
 136   0.0000       0.408833        11.1249 
 137   0.0000       0.433310        11.7910 
 138   0.0000       0.437902        11.9159 
 139   0.0000       0.440509        11.9869 
 140   0.0000       0.452227        12.3057 
 141   0.0000       0.460804        12.5391 
 142   0.0000       0.465970        12.6797 
 143   0.0000       0.470656        12.8072 
 144   0.0000       0.481965        13.1149 
 145   0.0000       0.484511        13.1842 
 146   0.0000       0.493285        13.4230 
 147   0.0000       0.499806        13.6004 
 148   0.0000       0.506495        13.7824 
 149   0.0000       0.519472        14.1355 
 150   0.0000       0.523597        14.2478 
 151   0.0000       0.527015        14.3408 
 152   0.0000       0.533999        14.5309 
 153   0.0000       0.538530        14.6542 
 154   0.0000       0.549749        14.9594 
 155   0.0000       0.555480        15.1154 
 156   0.0000       0.556317        15.1382 
 157   0.0000       0.563429        15.3317 
 158   0.0000       0.574551        15.6343 
 159   0.0000       0.576008        15.6740 
 160   0.0000       0.580930        15.8079 
 161   0.0000       0.587987        15.9999 
 162   0.0000       0.594071        16.1655 
 163   0.0000       0.597229        16.2514 
 164   0.0000       0.601948        16.3798 
 165   0.0000       0.610054        16.6004 
 166   0.0000       0.617756        16.8100 
 167   0.0000       0.624368        16.9899 
 168   0.0000       0.627417        17.0729 
 169   0.0000       0.630881        17.1672 
 170   0.0000       0.632557        17.2128 
 171   0.0000       0.635320        17.2879 
 172   0.0000       0.636695        17.3254 
 173   0.0000       0.643535        17.5115 
 174   0.0000       0.650848        17.7105 
 175   0.0000       0.650912        17.7122 
 176   0.0000       0.655822        17.8458 
 177   0.0000       0.656888        17.8748 
 178   0.0000       0.665498        18.1091 
 179   0.0000       0.669846        18.2274 
 180   0.0000       0.673974        18.3398 
 181   0.0000       0.679668        18.4947 
 182   0.0000       0.683403        18.5963 
 183   0.0000       0.685557        18.6549 
 184   0.0000       0.688581        18.7372 
 185   0.0000       0.691670        18.8213 
 186   0.0000       0.703353        19.1392 
 187   0.0000       0.706765        19.2321 
 188   0.0000       0.707321        19.2472 
 189   0.0000       0.717836        19.5333 
 190   0.0000       0.727589        19.7987 
 191   0.0000       0.742047        20.1921 
 192   0.0000       0.753924        20.5153 
 193   0.0000       0.760952        20.7065 
 194   0.0000       0.786620        21.4050 
 195   0.0000       0.790861        21.5204 
 196   0.0000       0.816059        22.2061 
 197   0.0000       0.822621        22.3846 
 198   0.0000       0.831769        22.6336 
 199   0.0000       0.858155        23.3516 
 200   0.0000       0.864077        23.5127 
 201   0.0000       0.879599        23.9351 
 202   0.0000       0.910444        24.7745 
 203   0.0000       0.916718        24.9452 
 204   0.0000       0.919973        25.0337 
 205   0.0000       0.927544        25.2398 
 206   0.0000       0.934539        25.4301 
 207   0.0000       0.963840        26.2274 
 208   0.0000       0.973658        26.4946 
 209   0.0000       0.982948        26.7474 
 210   0.0000       0.988223        26.8909 
 211   0.0000       0.998234        27.1633 
 212   0.0000       1.006945        27.4004 
 213   0.0000       1.020947        27.7814 
 214   0.0000       1.041313        28.3356 
 215   0.0000       1.046399        28.4740 
 216   0.0000       1.058980        28.8163 
 217   0.0000       1.066888        29.0315 
 218   0.0000       1.070973        29.1427 
 219   0.0000       1.083593        29.4861 
 220   0.0000       1.096541        29.8384 
 221   0.0000       1.113840        30.3091 
 222   0.0000       1.128908        30.7191 
 223   0.0000       1.130569        30.7644 
 224   0.0000       1.136981        30.9388 
 225   0.0000       1.155635        31.4464 
 226   0.0000       1.156485        31.4696 
 227   0.0000       1.164818        31.6963 
 228   0.0000       1.183725        32.2108 
 229   0.0000       1.187673        32.3182 
 230   0.0000       1.196401        32.5557 
 231   0.0000       1.203314        32.7438 
 232   0.0000       1.210842        32.9487 
 233   0.0000       1.219466        33.1833 
 234   0.0000       1.225699        33.3530 
 235   0.0000       1.246873        33.9291 
 236   0.0000       1.256783        34.1988 
 237   0.0000       1.263149        34.3720 
 238   0.0000       1.270788        34.5799 
 239   0.0000       1.285508        34.9805 
 240   0.0000       1.300588        35.3908 
 241   0.0000       1.314956        35.7818 
 242   0.0000       1.330450        36.2034 
 243   0.0000       1.342741        36.5378 
 244   0.0000       1.365230        37.1498 
 245   0.0000       1.377989        37.4970 
 246   0.0000       1.382337        37.6153 
 247   0.0000       1.385263        37.6949 
 248   0.0000       1.393767        37.9263 
 249   0.0000       1.401459        38.1356 
 250   0.0000       1.417853        38.5817 
 251   0.0000       1.444833        39.3159 
 252   0.0000       1.453653        39.5559 
 253   0.0000       1.460180        39.7335 
 254   0.0000       1.464298        39.8456 
 255   0.0000       1.487002        40.4634 
 256   0.0000       1.504709        40.9452 
 257   0.0000       1.508189        41.0399 
 258   0.0000       1.522574        41.4313 
 259   0.0000       1.530415        41.6447 
 260   0.0000       1.546146        42.0728 
 261   0.0000       1.553484        42.2725 
 262   0.0000       1.556092        42.3434 
 263   0.0000       1.568759        42.6881 
 264   0.0000       1.584618        43.1197 
 265   0.0000       1.594059        43.3766 
 266   0.0000       1.600590        43.5543 
 267   0.0000       1.610524        43.8246 
 268   0.0000       1.617497        44.0143 
 269   0.0000       1.629996        44.3544 
 270   0.0000       1.646720        44.8095 
 271   0.0000       1.648695        44.8633 
 272   0.0000       1.650959        44.9249 
 273   0.0000       1.682164        45.7740 
 274   0.0000       1.699854        46.2554 
 275   0.0000       1.706324        46.4314 
 276   0.0000       1.722600        46.8743 
 277   0.0000       1.726796        46.9885 
 278   0.0000       1.729229        47.0547 
 279   0.0000       1.737463        47.2788 
 280   0.0000       1.740387        47.3583 
 281   0.0000       1.762440        47.9584 
 282   0.0000       1.769317        48.1456 
 283   0.0000       1.772558        48.2338 
 284   0.0000       1.778434        48.3937 
 285   0.0000       1.781253        48.4703 
 286   0.0000       1.786976        48.6261 
 287   0.0000       1.793830        48.8126 
 288   0.0000       1.797548        48.9138 
 289   0.0000       1.801690        49.0265 
 290   0.0000       1.815968        49.4150 
 291   0.0000       1.818239        49.4768 
 292   0.0000       1.826871        49.7117 
 293   0.0000       1.840549        50.0839 
 294   0.0000       1.851354        50.3779 
 295   0.0000       1.856731        50.5242 
 296   0.0000       1.869493        50.8715 
 297   0.0000       1.870767        50.9062 
 298   0.0000       1.877285        51.0835 
 299   0.0000       1.886199        51.3261 
 300   0.0000       1.899907        51.6991 
 301   0.0000       1.901486        51.7421 
 302   0.0000       1.907021        51.8927 
 303   0.0000       1.919153        52.2228 
 304   0.0000       1.924088        52.3571 
 305   0.0000       1.929587        52.5067 
 306   0.0000       1.941161        52.8217 
 307   0.0000       1.946335        52.9625 
 308   0.0000       1.972497        53.6744 
 309   0.0000       1.976462        53.7823 
 310   0.0000       1.982413        53.9442 
 311   0.0000       1.990223        54.1567 
 312   0.0000       2.001289        54.4579 
 313   0.0000       2.012899        54.7738 
 314   0.0000       2.019168        54.9443 
 315   0.0000       2.026172        55.1350 
 316   0.0000       2.037342        55.4389 
 317   0.0000       2.055768        55.9403 
 318   0.0000       2.069877        56.3242 
 319   0.0000       2.076771        56.5118 
 320   0.0000       2.083155        56.6855 
 321   0.0000       2.102240        57.2049 
 322   0.0000       2.118753        57.6542 
 323   0.0000       2.132209        58.0204 
 324   0.0000       2.137145        58.1547 
 325   0.0000       2.146393        58.4063 
 326   0.0000       2.165769        58.9336 
 327   0.0000       2.172147        59.1071 
 328   0.0000       2.175287        59.1926 
 329   0.0000       2.198256        59.8176 
 330   0.0000       2.201023        59.8929 
 331   0.0000       2.212188        60.1967 
 332   0.0000       2.220439        60.4212 
 333   0.0000       2.232373        60.7460 
 334   0.0000       2.242412        61.0191 
 335   0.0000       2.254999        61.3616 
 336   0.0000       2.257275        61.4236 
 337   0.0000       2.269598        61.7589 
 338   0.0000       2.281407        62.0802 
 339   0.0000       2.302035        62.6416 
 340   0.0000       2.317597        63.0650 
 341   0.0000       2.339387        63.6580 
 342   0.0000       2.351296        63.9820 
 343   0.0000       2.365251        64.3617 
 344   0.0000       2.375246        64.6337 
 345   0.0000       2.383333        64.8538 
 346   0.0000       2.407176        65.5026 
 347   0.0000       2.412297        65.6420 
 348   0.0000       2.442224        66.4563 
 349   0.0000       2.467298        67.1386 
 350   0.0000       2.473728        67.3136 
 351   0.0000       2.476618        67.3922 
 352   0.0000       2.488209        67.7076 
 353   0.0000       2.507302        68.2272 
[...]
   235. D(C  34,N  41,C  10,C   7)     93.53 -0.000185   -2.86     90.67   
   236. D(C  34,N  41,C  10,O   0)   -143.77  0.000151   -3.33   -147.10   
    ----------------------------------------------------------------------------

         *************************************************************
         *                GEOMETRY OPTIMIZATION CYCLE  40            *
         *************************************************************
---------------------------------
CARTESIAN COORDINATES (ANGSTROEM)
---------------------------------
  O      1.352108   -1.258957    1.053282
  O     -0.499164    2.146053   -0.313281
  O      2.238542    1.943869   -0.398839
  O      4.110903   -1.621064    1.003725
  O     -3.063420    1.394167   -0.182762
  N     -1.982206   -0.600930   -0.360468
  C      0.076743    0.868084   -0.356318
  C     -0.752745   -0.231324    0.345735
  C      1.457748    1.004328    0.295815
  C      2.171966   -0.340414    0.318662
  C      0.101347   -1.517389    0.478024
  C      3.529009   -0.339664    1.004122
  C     -3.062298    0.203977   -0.500466
  C     -4.294348   -0.445659   -1.103288
  H      0.237048    0.543307   -1.409168
  H     -1.003471    0.133573    1.358977
  H      1.294630    1.318851    1.348834
  H      2.298000   -0.716799   -0.715796
  H      0.215425   -1.956202   -0.536042
  H      3.406833    0.064460    2.031422
  H      4.196378    0.341813    0.456114
  H     -2.071130   -1.587579   -0.617752
  H     -1.480019    2.059249   -0.260420
  H      1.657533    2.704905   -0.554370
  H      3.442295   -2.228787    1.354240
  H     -5.183162   -0.050144   -0.591859
  H     -4.370272   -0.155322   -2.164095
  H     -4.277044   -1.543410   -1.037407
  C     -1.621116   -4.630884    1.856342
  C     -1.066174   -5.976992    1.367906
  C      0.448866   -6.013450    1.534780
  N     -1.665255   -7.074643    2.124796
  O      1.145851   -5.072887    1.827257
  O      0.944257   -7.237085    1.282397
  C     -1.322453   -3.493557    0.891693
  H     -1.259363   -4.427425    2.874558
  H     -2.718877   -4.717994    1.894694
  H     -1.245609   -6.033390    0.270442
  H     -1.225531   -7.958142    1.866902
  H     -2.654359   -7.156973    1.888589
  H      1.909827   -7.187072    1.397995
  N     -0.493900   -2.523437    1.342889
  O     -1.830475   -3.467954   -0.230139
  H      0.042206   -2.708178    2.186483

----------------------------
CARTESIAN COORDINATES (A.U.)
----------------------------
  NO LB      ZA    FRAG     MASS         X           Y           Z
   0 O     8.0000    0    15.999    2.555113   -2.379085    1.990415
   1 O     8.0000    0    15.999   -0.943284    4.055452   -0.592016
   2 O     8.0000    0    15.999    4.230231    3.673379   -0.753697
   3 O     8.0000    0    15.999    7.768481   -3.063367    1.896765
   4 O     8.0000    0    15.999   -5.789025    2.634594   -0.345370
   5 N     7.0000    0    14.007   -3.745826   -1.135593   -0.681185
   6 C     6.0000    0    12.011    0.145024    1.640441   -0.673344
   7 C     6.0000    0    12.011   -1.422481   -0.437140    0.653345
   8 C     6.0000    0    12.011    2.754744    1.897905    0.559010
   9 C     6.0000    0    12.011    4.104420   -0.643290    0.602185
  10 C     6.0000    0    12.011    0.191519   -2.867450    0.903334
  11 C     6.0000    0    12.011    6.668860   -0.641871    1.897516
  12 C     6.0000    0    12.011   -5.786905    0.385462   -0.945743
  13 C     6.0000    0    12.011   -8.115142   -0.842174   -2.084912
  14 H     1.0000    0     1.008    0.447955    1.026701   -2.662942
  15 H     1.0000    0     1.008   -1.896286    0.252417    2.568094
  16 H     1.0000    0     1.008    2.446497    2.492267    2.548926
  17 H     1.0000    0     1.008    4.342591   -1.354554   -1.352659
  18 H     1.0000    0     1.008    0.407094   -3.696687   -1.012973
  19 H     1.0000    0     1.008    6.437982    0.121812    3.838832
  20 H     1.0000    0     1.008    7.930005    0.645932    0.861931
  21 H     1.0000    0     1.008   -3.913868   -3.000089   -1.167381
  22 H     1.0000    0     1.008   -2.796830    3.891416   -0.492123
  23 H     1.0000    0     1.008    3.132283    5.111529   -1.047608
  24 H     1.0000    0     1.008    6.504994   -4.211798    2.559144
  25 H     1.0000    0     1.008   -9.794756   -0.094759   -1.118452
  26 H     1.0000    0     1.008   -8.258617   -0.293516   -4.089547
  27 H     1.0000    0     1.008   -8.082442   -2.916622   -1.960416
  28 C     6.0000    0    12.011   -3.063466   -8.751103    3.507978
  29 C     6.0000    0    12.011   -2.014777  -11.294878    2.584967
  30 C     6.0000    0    12.011    0.848234  -11.363774    2.900314
  31 N     7.0000    0    14.007   -3.146876  -13.369137    4.015283
  32 O     8.0000    0    15.999    2.165345   -9.586366    3.453015
  33 O     8.0000    0    15.999    1.784387  -13.676108    2.423379
  34 C     6.0000    0    12.011   -2.499074   -6.601866    1.685055
  35 H     1.0000    0     1.008   -2.379850   -8.366621    5.432127
  36 H     1.0000    0     1.008   -5.137932   -8.915716    3.580452
  37 H     1.0000    0     1.008   -2.353860  -11.401455    0.511061
  38 H     1.0000    0     1.008   -2.315918  -15.038709    3.527933
  39 H     1.0000    0     1.008   -5.016011  -13.524719    3.568916
  40 H     1.0000    0     1.008    3.609049  -13.581598    2.641827
  41 N     7.0000    0    14.007   -0.933336   -4.768605    2.537693
  42 O     8.0000    0    15.999   -3.459096   -6.553483   -0.434900
  43 H     1.0000    0     1.008    0.079758   -5.117715    4.131855

--------------------------------
INTERNAL COORDINATES (ANGSTROEM)
--------------------------------
 O      0   0   0     0.000000000000     0.00000000     0.00000000
 O      1   0   0     4.109598348188     0.00000000     0.00000000
 O      2   1   0     2.746494692293    60.02190438     0.00000000
 O      1   2   3     2.782899564470   123.26152372   359.27078099
 O      2   1   3     2.675401611716   100.52621132   172.80771237
 N      5   2   1     2.276184542846    77.71611427   335.67598459
 C      2   1   3     1.402400196073    21.59286745    87.70216430
 C      6   5   2     1.465232011131    98.03911478    31.84698891
 C      3   2   1     1.405318530944    58.66751988   349.65031918
 C      1   2   3     1.433720578674    63.66539541   348.40159440
 C      1   2   3     1.400753571957    67.29805299   212.91308796
 C      4   1   2     1.407333452279    58.10450841    23.55265990
 C      5   2   1     1.231863679451   104.95583853   323.37440108
 C     13   5   2     1.517685510698   121.01508774   205.71258447
 H      7   2   1     1.113404889705   110.72970726   191.71035153
 H      8   6   5     1.105745368214   109.55022666    56.47859276
 H      9   3   2     1.111026470619   111.14950926   270.65404140
 H     10   1   2     1.107995823172   109.01355589   258.64931322
 H     11   1   2     1.110810862004   110.86039895   103.92352427
 H     12   4   1     1.110670373318   112.15049314    91.92050611
 H     12   4   1     1.100047082118   108.24488412   210.45159960
 H      6   5   2     1.023512910872   145.41606122   201.19982819
 H      2   1   3     0.986105685022   110.93544141   177.31210357
 H      3   2   1     0.970019034469    49.47269246   189.95619668
 H      4   1   2     0.969137066229    52.49925563   177.91826795
 H     14  13   5     1.099081915063   108.51947651   321.06102997
 H     14  13   5     1.102439623248   108.98840037    77.60134172
 H     14  13   5     1.099861631335   112.99552370   198.63003792
 C     11   1   2     3.815821532394   113.90742890   207.33137170
 C     29  11   1     1.535753026738   115.92482338   284.61826062
 C     30  29  11     1.524638498799   110.19540332    50.18766744
 N     30  29  11     1.461717420542   110.20733110   171.05572231
 O     31  30  29     1.206644086361   125.58263406   350.34892038
 O     31  30  29     1.344020442616   111.56062391   171.85651008
 C     29  11   1     1.520940746384    21.89295485   198.53365378
 H     29  11   1     1.099556445215    92.00574831    37.75168975
 H     29  11   1     1.101878814865   121.78883116   150.50925980
 H     30  29  11     1.113464880265   107.43584540   295.76293863
 H     32  30  29     1.020018480316   110.04910207   185.86086701
 H     32  30  29     1.020244267692   109.75827351    68.56763667
 H     34  31  30     0.973750254768   107.24385996   179.44747169
 N     35  29  11     1.353222390346   116.41305987   349.29345343
 O     35  29  11     1.231766358498   120.81009588   170.11394711
 H     42  35  29     1.016459885430   117.99254782    13.94948748

---------------------------
INTERNAL COORDINATES (A.U.)
---------------------------
 O      0   0   0     0.000000000000     0.00000000     0.00000000
 O      1   0   0     7.766015398490     0.00000000     0.00000000
 O      2   1   0     5.190122796702    60.02190438     0.00000000
 O      1   2   3     5.258918035057   123.26152372   359.27078099
 O      2   1   3     5.055776344395   100.52621132   172.80771237
 N      5   2   1     4.301365416243    77.71611427   335.67598459
 C      2   1   3     2.650152300736    21.59286745    87.70216430
 C      6   5   2     2.768887223693    98.03911478    31.84698891
 C      3   2   1     2.655667154408    58.66751988   349.65031918
 C      1   2   3     2.709339246261    63.66539541   348.40159440
 C      1   2   3     2.647040632111    67.29805299   212.91308796
 C      4   1   2     2.659474803914    58.10450841    23.55265990
 C      5   2   1     2.327884988487   104.95583853   323.37440108
 C     13   5   2     2.868009972639   121.01508774   205.71258447
 H      7   2   1     2.104030317712   110.72970726   191.71035153
 H      8   6   5     2.089555919777   109.55022666    56.47859276
 H      9   3   2     2.099535757007   111.14950926   270.65404140
 H     10   1   2     2.093808663325   109.01355589   258.64931322
 H     11   1   2     2.099128315772   110.86039895   103.92352427
 H     12   4   1     2.098862830630   112.15049314    91.92050611
 H     12   4   1     2.078787719622   108.24488412   210.45159960
 H      6   5   2     1.934159096081   145.41606122   201.19982819
 H      2   1   3     1.863469683795   110.93544141   177.31210357
 H      3   2   1     1.833070319838    49.47269246   189.95619668
 H      4   1   2     1.831403641404    52.49925563   177.91826795
 H     14  13   5     2.076963818215   108.51947651   321.06102997
 H     14  13   5     2.083308967121   108.98840037    77.60134172
 H     14  13   5     2.078437268431   112.99552370   198.63003792
 C     11   1   2     7.210857672144   113.90742890   207.33137170
 C     29  11   1     2.902152629876   115.92482338   284.61826062
 C     30  29  11     2.881149215962   110.19540332    50.18766744
 N     30  29  11     2.762245610006   110.20733110   171.05572231
 O     31  30  29     2.280226864338   125.58263406   350.34892038
 O     31  30  29     2.539830554936   111.56062391   171.85651008
 C     29  11   1     2.874161476587    21.89295485   198.53365378
 H     29  11   1     2.077860550245    92.00574831    37.75168975
 H     29  11   1     2.082249192865   121.78883116   150.50925980
 H     30  29  11     2.104143683441   107.43584540   295.76293863
 H     32  30  29     1.927555579336   110.04910207   185.86086701
 H     32  30  29     1.927982255642   109.75827351    68.56763667
 H     34  31  30     1.840121304347   107.24385996   179.44747169
 N     35  29  11     2.557219716044   116.41305987   349.29345343
 O     35  29  11     2.327701078539   120.81009588   170.11394711
 H     42  35  29     1.920830809579   117.99254782    13.94948748

------------------------------------------------------------------------------
                   ___                                                        
                  /   \      - P O W E R E D   B Y -                         
                 /     \                                                     
                 |  |  |   _    _      __       _____    __    __             
                 |  |  |  | |  | |    /  \     |  _  \  |  |  /  |          
                  \  \/   | |  | |   /    \    | | | |  |  | /  /          
                 / \  \   | |__| |  /  /\  \   | |_| |  |  |/  /          
                |  |  |   |  __  | /  /__\  \  |    /   |      \           
                |  |  |   | |  | | |   __   |  |    \   |  |\   \          
                \     /   | |  | | |  |  |  |  | |\  \  |  | \   \       
                 \___/    |_|  |_| |__|  |__|  |_| \__\ |__|  \__/        
                                                                              
                      - O R C A' S   B I G   F R I E N D -                    
                                      &                                       
                       - I N T E G R A L  F E E D E R -                       
                                                                              
 v1 FN, 2020, v2 2021                                                         
------------------------------------------------------------------------------


Reading SHARK input file /home/friday_code/Desktop/DP2/tmp.SHARKINP.tmp ... ok
----------------------
SHARK INTEGRAL PACKAGE
----------------------

Number of atoms                             ...     44
Number of basis functions                   ...    427
Number of shells                            ...    201
Maximum angular momentum                    ...      2
Integral batch strategy                     ... SHARK/LIBINT Hybrid
RI-J (if used) integral strategy            ... SPLIT-RIJ (Revised 2003 algorithm where possible)
Printlevel                                  ...      1
Contraction scheme used                     ... SEGMENTED contraction
Coulomb Range Separation                    ... NOT USED
Exchange Range Separation                   ... NOT USED
Finite Nucleus Model                        ... NOT USED
Auxiliary Coulomb fitting basis             ... AVAILABLE
   # of basis functions in Aux-J            ...   1358
   # of shells in Aux-J                     ...    450
   Maximum angular momentum in Aux-J        ...      4
Auxiliary J/K fitting basis                 ... NOT available
Auxiliary Correlation fitting basis         ... NOT available
Auxiliary 'external' fitting basis          ... NOT available
Integral threshold                          ...     2.500000e-11
Primitive cut-off                           ...     2.500000e-12
Primitive pair pre-selection threshold      ...     2.500000e-12

Calculating pre-screening integrals         ... done (  0.1 sec) Dimension = 201
Organizing shell pair data                  ... done (  0.1 sec)
Shell pair information
Total number of shell pairs                 ...     20301
Shell pairs after pre-screening             ...     14104
Total number of primitive shell pairs       ...     73133
Primitive shell pairs kept                  ...     32450
          la=0 lb=0:   4509 shell pairs
          la=1 lb=0:   5295 shell pairs
          la=1 lb=1:   1595 shell pairs
          la=2 lb=0:   1620 shell pairs
          la=2 lb=1:    940 shell pairs
          la=2 lb=2:    145 shell pairs

Calculating one electron integrals          ... done (  0.1 sec)
Calculating RI/J V-Matrix + Cholesky decomp.... done (  0.1 sec)
Calculating Nuclear repulsion               ... done (  0.0 sec) ENN=   2157.653789375653 Eh

SHARK setup successfully completed in   0.3 seconds

Maximum memory used throughout the entire GTOINT-calculation: 81.0 MB

Diagonalization of the overlap matrix:
Smallest eigenvalue                        ... 7.588e-04
Time for diagonalization                   ...    0.017 sec
Threshold for overlap eigenvalues          ... 1.000e-08
Number of eigenvalues below threshold      ... 0
Time for construction of square roots      ...    0.011 sec
Total time needed                          ...    0.029 sec

-------------------
DFT GRID GENERATION
-------------------

General Integration Accuracy     IntAcc      ... 4.388
Radial Grid Type                 RadialGrid  ... OptM3 with GC (2021)
Angular Grid (max. ang.)         AngularGrid ... 4 (Lebedev-302)
Angular grid pruning method      GridPruning ... 4 (adaptive)
Weight generation scheme         WeightScheme... Becke
Basis function cutoff            BFCut       ... 1.0000e-11
Integration weight cutoff        WCut        ... 1.0000e-14
Angular grids for H and He will be reduced by one unit
Partially contracted basis set               ... off
Rotationally invariant grid construction     ... off

Total number of grid points                  ...   204382
Total number of batches                      ...     3217
Average number of points per batch           ...       63
Average number of grid points per atom       ...     4645
Time for grid setup =    2.779 sec

--------------------
COSX GRID GENERATION
--------------------

GRIDX 1
-------
General Integration Accuracy     IntAcc      ... 3.816
Radial Grid Type                 RadialGrid  ... OptM3 with GC (2021)
Angular Grid (max. ang.)         AngularGrid ... 1 (Lebedev-50)
Angular grid pruning method      GridPruning ... 4 (adaptive)
Weight generation scheme         WeightScheme... Becke
Basis function cutoff            BFCut       ... 1.0000e-11
Integration weight cutoff        WCut        ... 1.0000e-14
Angular grids for H and He will be reduced by one unit
Partially contracted basis set               ... on
Rotationally invariant grid construction     ... off

Total number of grid points                  ...    25963
Total number of batches                      ...      430
Average number of points per batch           ...       60
Average number of grid points per atom       ...      590
UseSFitting                                  ... on

GRIDX 2
-------
General Integration Accuracy     IntAcc      ... 4.020
Radial Grid Type                 RadialGrid  ... OptM3 with GC (2021)
Angular Grid (max. ang.)         AngularGrid ... 2 (Lebedev-110)
Angular grid pruning method      GridPruning ... 4 (adaptive)
Weight generation scheme         WeightScheme... Becke
Basis function cutoff            BFCut       ... 1.0000e-11
Integration weight cutoff        WCut        ... 1.0000e-14
Angular grids for H and He will be reduced by one unit
Partially contracted basis set               ... on
Rotationally invariant grid construction     ... off

Total number of grid points                  ...    55869
Total number of batches                      ...      895
Average number of points per batch           ...       62
Average number of grid points per atom       ...     1270
UseSFitting                                  ... on

GRIDX 3
-------
General Integration Accuracy     IntAcc      ... 4.338
Radial Grid Type                 RadialGrid  ... OptM3 with GC (2021)
Angular Grid (max. ang.)         AngularGrid ... 3 (Lebedev-194)
Angular grid pruning method      GridPruning ... 4 (adaptive)
Weight generation scheme         WeightScheme... Becke
Basis function cutoff            BFCut       ... 1.0000e-11
Integration weight cutoff        WCut        ... 1.0000e-14
Angular grids for H and He will be reduced by one unit
Partially contracted basis set               ... on
Rotationally invariant grid construction     ... off

Total number of grid points                  ...   121962
Total number of batches                      ...     1929
Average number of points per batch           ...       63
Average number of grid points per atom       ...     2772
UseSFitting                                  ... on

Time for X-Grid setup             =    3.842 sec

--------------
SCF ITERATIONS
--------------
ITER       Energy         Delta-E        Max-DP      RMS-DP      [F,P]     Damp
               ***  Starting incremental Fock matrix formation  ***
  0  -1234.4295876465   0.000000000000 0.00739426  0.00012882  0.0344299 0.7000
