
                                 *****************
                                 * O   R   C   A *
                                 *****************

                                            #,                                       
                                            ###                                      
                                            ####                                     
                                            #####                                    
                                            ######                                   
                                           ########,                                 
                                     ,,################,,,,,                         
                               ,,#################################,,                 
                          ,,##########################################,,             
                       ,#########################################, ''#####,          
                    ,#############################################,,   '####,        
                  ,##################################################,,,,####,       
                ,###########''''           ''''###############################       
              ,#####''   ,,,,##########,,,,          '''####'''          '####       
            ,##' ,,,,###########################,,,                        '##       
           ' ,,###''''                  '''############,,,                           
         ,,##''                                '''############,,,,        ,,,,,,###''
      ,#''                                            '''#######################'''  
     '                                                          ''''####''''         
             ,#######,   #######,   ,#######,      ##                                
            ,#'     '#,  ##    ##  ,#'     '#,    #''#        ,####,    ,#,          
            ##       ##  ##   ,#'  ##            #'  '#       #'       ,# #          
            ##       ##  #######   ##           ,######,      #####,      #          
            '#,     ,#'  ##    ##  '#,     ,#' ,#      #,     #,   #      #          
             '#######'   ##     ##  '#######'  #'      '#     '####' #    #          



                #########################################################
                #                        -***-                          #
                #          Department of theory and spectroscopy        #
                #                                                       #
                #                      Frank Neese                      #
                #                                                       #
                #     Directorship, Architecture, Infrastructure        #
                #                    SHARK, DRIVERS                     #
                #        Core code/Algorithms in most modules           #
                #                                                       #
                #        Max Planck Institute fuer Kohlenforschung      #
                #                Kaiser Wilhelm Platz 1                 #
                #                 D-45470 Muelheim/Ruhr                 #
                #                      Germany                          #
                #                                                       #
                #                  All rights reserved                  #
                #                        -***-                          #
                #########################################################


                         Program Version 6.1.1  -  RELEASE   -
                                (GIT: $487d211c$)
                          ($2025-11-21 10:33:24 +0100$)
                                                                         
                                  - NO-DMRG VERSION -                    
                                                                         


 With contributions from (in alphabetic order):
[Max-Planck-Institut fuer Kohlenforschung]                               
  Daniel Aravena         : Magnetic Suceptibility                        
  Michael Atanasov       : Ab Initio Ligand Field Theory (pilot matlab implementation)
  Alexander A. Auer      : GIAO ZORA, VPT2 properties, NMR spectrum      
  Ute Becker             : All parallelization in ORCA, NUMFREQ, NUMCALC 
  Giovanni Bistoni       : ED, misc. LED, open-shell LED, HFLD           
  Dmytro Bykov           : pre 5.0 version of the SCF Hessian            
  Marcos Casanova-Páez   : Triplet and SCS-CIS(D). UHF-(DLPNO)-IP/EA/STEOM-CCSD. UHF-CVS-IP/STEOM-CCSD   
  Vijay G. Chilkuri      : MRCI spin determinant printing, contributions to CSF-ICE 
  Pauline Colinet        : FMM embedding                                 
  Dipayan Datta          : RHF DLPNO-CCSD density                        
  Achintya Kumar Dutta   : EOM-CC, STEOM-CC                              
  Nicolas Foglia         : Exact transition moments, OPA infrastructure, MCD improvements    
  Dmitry Ganyushin       : Spin-Orbit,Spin-Spin,Magnetic field MRCI      
  Miquel Garcia-Rates    : C-PCM and meta-GGA Hessian, CCSD/C-PCM, Gaussian charge scheme 
  Tiago L. C. Gouveia    : GS-ROHF, GS-ROCIS                             
  Yang Guo               : DLPNO-NEVPT2, F12-NEVPT2, CIM, IAO-localization        
  Andreas Hansen         : Spin unrestricted coupled pair/coupled cluster methods 
  Ingolf Harden          : AUTO-CI MPn and infrastructure                
  Benjamin Helmich-Paris : MC-RPA, TRAH-(SCF,CASSCF), AVAS, COSX integrals, SCF dyn. polar., MC-PDFT, srDFT 
  Lee Huntington         : MR-EOM, pCC                                   
  Robert Izsak           : Overlap fitted RIJCOSX, COSX-SCS-MP3, EOM     
  Riya Kayal             : Wick's Theorem for AUTO-CI, AUTO-CI UHF-CCSDT 
  Emily Kempfer          : AUTO-CI RHF CISDT and CCSDT, approximate NEVPT4
  Christian Kollmar      : KDIIS, OOCD, Brueckner-CCSD(T), CCSD density, CASPT2, CASPT2-K, improved NEVPT2 
  Axel Koslowski         : Symmetry handling                             
  Simone Kossmann        : meta-GGA functionals, TD-DFT gradient, OOMP2, (MP2 Hessian; deprecated post 5.0) 
  Lucas Lang             : DCDCAS, Hyperfine gauge corrections, ICE-SOC+SSC
  Marvin Lechner         : AUTO-CI (C++ implementation), FIC-MRCC        
  Spencer Leger          : CASSCF response                               
  Dagmar Lenk            : GEPOL surface, SMD, ORCA-2-JSON               
  Dimitrios Liakos       : Extrapolation schemes; Compound Job, Property file
  Dimitrios Manganas     : Further ROCIS development; embedding schemes. LFT, Crystal Embedding 
  Dimitrios Pantazis     : SARC Basis sets                               
  Anastasios Papadopoulos: AUTO-CI, single reference methods and gradients 
  Taras Petrenko         : pre 6.0 DFT Hessian and TD-DFT gradient,  ECA, NRVS 
  Petra Pikulova         : Analytic Raman intensities                    
  Peter Pinski           : DLPNO-MP2, DLPNO-MP2 Gradient                 
  Shashank Vittal Rao    : ES-AILFT, MagRelax                            
  Christoph Reimann      : Effective Core Potentials                     
  Marius Retegan         : Local ZFS, SOC                                
  Christoph Riplinger    : Optimizer, TS searches, QM/MM, DLPNO-CCSD(T), (RO)-DLPNO pert. Triples 
  Michael Roemelt        : Original ROCIS implementation, recursive CI coupling coefficients
  Masaaki Saitow         : Open-shell DLPNO-CCSD energy and density      
  Barbara Sandhoefer     : DKH picture change effects                    
  Yorick L. A. Schmerwitz: GMF and freeze-and-release deltaSCF, NEB S-IDPP initial path                    
  Kantharuban Sivalingam : CASSCF convergence/infrastructure, NEVPT2, NEVPT3, NEVPT4(SD), FIC-MRCI and CEPA variants
  Bernardo de Souza      : ESD, SOC TD-DFT                               
  Georgi L. Stoychev     : AutoAux, RI-MP2 NMR, DLPNO-MP2 response, X2C  
  Van Anh Tran           : RI-MP2 g-tensors                              
  Willem Van den Heuvel  : Paramagnetic NMR                              
  Zikuan Wang            : NOTCH, Electric field optimization            
  Frank Wennmohs         : Technical directorship and infrastructure     
  Hang Xu                : AUTO-CI-Response properties                   
                                                                         
[FACCTs GmbH]                                                            
  Markus Bursch, Nicolas Foglia, Miquel Garcia-Rates, Ingolf Harden, Hagen Neugebauer, Anastasios Papadopoulos, 
  Christoph Riplinger, Bernardo de Souza, Georgi L. Stoychev                                                    
                                                                 
  APM, various basis sets, CI-OPT, improved COSX, DLPNO-Multilevel,           
  DOCKER, DRACO, updates on ESD, Fragmentator, GOAT, IRC, LR-CPCM, L-BFGS, MBIS, meta-GGA TD-DFT gradient, ML-optimized integration grids, 
  MM, NACMEs, nearIR, NEB, NEB-TS, NL-DFT gradient (VV10), 2- and 3-layer-ONIOM, interface openCOSMO-RS, QMMM,   
  Crystal-QMMM, RESP, rigid body optimization, SF, symmetry and pop. for TD-DFT, various functionals, SOLVATOR                                   
                                                                         
[Other institutions]                                                     
  V. Asgeirsson          : NEB                                           
  Christoph Bannwarth    : sTDA-DFT, sTD-DFT, PBEh-3c, B97-3c, D3        
  Giovanni Bistoni       : ETS/NOCV, ADLD/ADEX, COVALED                  
  Martin Brehm           : Molecular dynamics                            
  Ronald Cardenas        : ETS/NOCV                                      
  Martina Colucci        : COVALED                                       
  Sebastian Ehlert       : rSCAN, r2SCAN, r2SCAN-3c, D4, dhf basis sets  
  Marvin Friede          : D4 for Fr, Ra, Ac-Lr                          
  Lars Goerigk           : TD-DFT with DH, B97 family of functionals     
  Stefan Grimme          : VdW corrections, initial TS optimization, DFT functionals, gCP, sTDA/sTD-DF 
  Waldemar Hujo          : DFT-NL                                        
  H. Jonsson             : NEB                                           
  Holger Kruse           : gCP                                           
  Marcel Mueller         : wB97X-3c, vDZP basis set                      
  Hagen Neugebauer       : wr2SCAN, Native XTB                           
  Gianluca Regni         : ADLD/ADEX                                     
  Tobias Risthaus        : pre 6.0 range-separated hybrid DFT and stability analysis
  Lukas Wittmann         : regularized MP2, r2SCAN double-hybrids, wr2SCAN        
                                                                         
We gratefully acknowledge several colleagues who have allowed us to      
interface, adapt or use parts of their codes:                            
  Ed Valeev, F. Pavosevic, A. Kumar             : LibInt (2-el integral package), F12 methods 
  Garnet Chan, S. Sharma, J. Yang, R. Olivares  : DMRG                   
  Ulf Ekstrom                                   : XCFun DFT Library      
  Mihaly Kallay                                 : mrcc  (arbitrary order and MRCC methods)
  Frank Weinhold                                : gennbo (NPA and NBO analysis)           
  Simon Mueller                                 : openCOSMO-RS                            
  Christopher J. Cramer and Donald G. Truhlar   : smd solvation model                     
  S Lehtola, MJT Oliveira, MAL Marques          : LibXC Library                           
  Liviu Ungur et al                             : ANISO software                          


 Your calculation uses the libint2 library for the computation of 2-el integrals
 For citations please refer to: http://libint.valeyev.net

 Your ORCA version has been built with support for libXC version: 7.0.0
 For citations please refer to: https://libxc.gitlab.io

 This ORCA versions uses:
   CBLAS   interface :  Fast vector & matrix operations
   LAPACKE interface :  Fast linear algebra routines
   SCALAPACK package :  Parallel linear algebra routines
   Shared memory     :  Shared parallel matrices
   BLAS/LAPACK       :  OpenBLAS 0.3.29  USE64BITINT DYNAMIC_ARCH NO_AFFINITY Zen SINGLE_THREADED
        Core in use  :  Zen
   Copyright (c) 2011-2014, The OpenBLAS Project


  ***********************************
  * Starting time: Sun Mar 29 10:25:53 2026
  * Host name:     33e191bc0687
  * Process ID:    46
  * Working dir.:  /kaggle/working
  ***********************************

NOTE: MaxCore=3000 MB was set to SCF,MP2,MDCI,CIPSI,MRCI,RASCI and CIS
      => If you want to overwrite this, your respective input block should be placed after the MaxCore statement
Your calculation utilizes the atom-pairwise dispersion correction
with the Becke-Johnson damping scheme (D3BJ)


Your calculation utilizes the SMD solvation module
Please cite in your paper:
Marenich, A. V.; Cramer, C. J.; Truhlar, D. G. J. Phys. Chem. B 2009, 113, 6378 

Warning: RI is on but no J-basis has been assigned. Assigning Def2/J (nothing to worry about!)
================================================================================

----- Orbital basis set information -----
Your calculation utilizes the basis: 6-31G(d,p)
   H-He, Li-Ne : W. J. Hehre, R. Ditchfield and J.A. Pople, J. Chem. Phys. 56, 2257 (1972).
                 Note: He and Ne are unpublished basis sets taken from the Gaussian program.
                 Note: Li and B from J. D. Dill and J. A. Pople, J. Chem. Phys. 62, 2921 (1975).
   Na - Ar     : M. M. Francl, W. J. Pietro, W. J. Hehre, J. S. Binkley, M. S. Gordon, 
                 D. J. DeFrees and J. A. Pople, J. Chem. Phys. 77, 3654 (1982).
   K - Zn      : V. A. Rassolov, J. A. Pople, M. A. Ratner, and T. L. Windus, J. Chem. Phys. 109, 1223 (1998).

----- AuxJ basis set information -----
Your calculation utilizes the auxiliary basis: def2/J
   H-Rn: F. Weigend, Phys. Chem. Chem. Phys. 8, 1057 (2006).
   Fr-Lr: K. Eichkorn, F. Weigend, O. Treutler, R. Ahlrichs; Theor. Chem. Acc. 97, 119 (1997).

================================================================================
                                        WARNINGS
                       Please study these warnings very carefully!
================================================================================


WARNING: Geometry Optimization
  ===> : Switching off AutoStart
         For restart on a previous wavefunction, please use MOREAD

================================================================================
                                       INPUT FILE
================================================================================
NAME = /kaggle/working/Gal-1/Gal_InterFrag.inp
|  1> 
|  2> !RKS B3LYP 6-31G(d,p) TightSCF Opt D3BJ
|  3>  
|  4> %pal nprocs 2 end
|  5> %maxcore 3000
|  6> 
|  7> %cpcm
|  8>   smd true
|  9>   SMDsolvent "WATER"
| 10>   end
| 11> 
| 12> %scf
| 13>   MaxIter 1000
| 14>   SOSCF Start 0.00033
| 15>   end
| 16> end
| 17> 
| 18> %output
| 19>   PrintLevel Normal
| 20>   Print[ P_OrbEn ] 2        # print ALL orbital energies (not just up to LUMO+9) :contentReference[oaicite:10]{index=10}
| 21>   XYZFile true              # writes basename.xyz (handy for reuse) :contentReference[oaicite:11]{index=11}
| 22>   end
| 23> 
| 24> *xyz 0 1
| 25> O        0.817300000      0.966700000     -0.236600000
| 26> O        0.354200000     -1.664900000     -1.246300000
| 27> O       -2.058000000     -1.991200000      0.096800000
| 28> O       -2.781500000      0.790500000      0.419700000
| 29> O       -0.827100000      2.584000000     -0.596400000
| 30> O        3.474400000      0.614300000      0.359500000
| 31> C        0.283100000     -1.370300000      0.150300000
| 32> C       -1.148200000     -0.979300000      0.519700000
| 33> C        1.234800000     -0.211000000      0.465100000
| 34> C       -1.538600000      0.349600000     -0.126600000
| 35> C       -0.479500000      1.418800000      0.151100000
| 36> C        2.669200000     -0.507400000      0.043700000
| 37> H        0.575500000     -2.281700000      0.682300000
| 38> H       -1.239200000     -0.903900000      1.610500000
| 39> H        1.222600000      0.016500000      1.539100000
| 40> H       -1.696900000      0.220500000     -1.204100000
| 41> H       -0.476100000      1.698900000      1.212100000
| 42> H        2.754300000     -0.676100000     -1.034500000
| 43> H        3.064800000     -1.381100000      0.569700000
| 44> H        0.245800000     -0.834400000     -1.739700000
| 45> H       -2.953700000     -1.695100000      0.333200000
| 46> H       -2.993200000      1.645800000      0.008000000
| 47> H       -0.425400000      3.344200000     -0.142500000
| 48> H        3.106900000      1.382000000     -0.110900000
| 49> *
| 50> 
| 51>                          ****END OF INPUT****
================================================================================

                       *****************************
                       * Geometry Optimization Run *
                       *****************************

Geometry optimization settings:
Update method            Update   .... BFGS
Choice of coordinates    CoordSys .... (2022) Redundant Internals
Initial Hessian          InHess   .... Almloef's Model
Max. no of cycles        MaxIter  .... 72

Convergence Tolerances:
Energy Change            TolE     ....  5.0000e-06 Eh
Max. Gradient            TolMAXG  ....  3.0000e-04 Eh/bohr
RMS Gradient             TolRMSG  ....  1.0000e-04 Eh/bohr
Max. Displacement        TolMAXD  ....  4.0000e-03 bohr
RMS Displacement         TolRMSD  ....  2.0000e-03 bohr
Strict Convergence                .... False

------------------------------------------------------------------------------
                        ORCA OPTIMIZATION COORDINATE SETUP
------------------------------------------------------------------------------

The optimization will be done in redundant internal coordinates (2022)
Making redundant internal coordinates   ...  (2022 redundants) done
Evaluating the initial hessian          ...  (Almloef) done
Evaluating the coordinates              ...  done
Calculating the B-matrix                .... done
Calculating the G-matrix                .... done
The number of degrees of freedom        ....  120

    -----------------------------------------------------------------
                    Redundant Internal Coordinates


    -----------------------------------------------------------------
         Definition                    Initial Value    Approx d2E/dq
    -----------------------------------------------------------------
      1. B(C   6,O   1)                  1.4291         0.484718   
      2. B(C   7,C   6)                  1.5290         0.374897   
      3. B(C   7,O   2)                  1.4250         0.492145   
      4. B(C   8,O   0)                  1.4331         0.477719   
      5. B(C   8,C   6)                  1.5326         0.370048   
      6. B(C   9,O   3)                  1.4275         0.487656   
      7. B(C   9,C   7)                  1.5284         0.375739   
      8. B(C  10,C   9)                  1.5304         0.373082   
      9. B(C  10,O   4)                  1.4273         0.487884   
     10. B(C  10,O   0)                  1.4270         0.488435   
     11. B(C  11,C   8)                  1.5241         0.381736   
     12. B(C  11,O   5)                  1.4164         0.507809   
     13. B(H  12,C   6)                  1.0951         0.353459   
     14. B(H  13,C   7)                  1.0972         0.350722   
     15. B(H  14,C   8)                  1.0979         0.349801   
     16. B(H  15,C   9)                  1.0967         0.351356   
     17. B(H  16,C  10)                  1.0974         0.350500   
     18. B(H  17,C  11)                  1.0946         0.354026   
     19. B(H  18,C  11)                  1.0939         0.355031   
     20. B(H  19,O   0)                  2.4145         0.010000   
     21. B(H  19,O   1)                  0.9721         0.497401   
     22. B(H  20,O   2)                  0.9725         0.496542   
     23. B(H  21,O   4)                  2.4367         0.010000   
     24. B(H  21,O   3)                  0.9725         0.496530   
     25. B(H  22,O   4)                  0.9723         0.497055   
     26. B(H  23,O   0)                  2.3304         0.010000   
     27. B(H  23,O   5)                  0.9725         0.496676   
     28. A(C   8,O   0,C  10)          113.0838         0.392148   
     29. A(C   6,O   1,H  19)          108.3223         0.352227   
     30. A(C   7,O   2,H  20)          107.4385         0.353031   
     31. A(C   9,O   3,H  21)          107.4070         0.352483   
     32. A(C  10,O   4,H  22)          107.0487         0.352574   
     33. A(C  11,O   5,H  23)          107.6074         0.354927   
     34. A(O   1,C   6,C   7)          109.5957         0.377847   
     35. A(O   1,C   6,C   8)          109.0124         0.376997   
     36. A(C   7,C   6,H  12)          110.2066         0.323517   
     37. A(C   8,C   6,H  12)          111.3439         0.322827   
     38. A(O   1,C   6,H  12)          106.8527         0.335513   
     39. A(C   7,C   6,C   8)          109.7689         0.362982   
     40. A(O   2,C   7,C   9)          109.1986         0.378990   
     41. A(C   6,C   7,C   9)          111.0557         0.363930   
     42. A(C   9,C   7,H  13)          109.8438         0.323224   
     43. A(C   6,C   7,H  13)          109.5966         0.323105   
     44. A(O   2,C   7,H  13)          106.9118         0.335928   
     45. A(O   2,C   7,C   6)          110.1434         0.378843   
     46. A(O   0,C   8,C  11)          107.3748         0.378078   
     47. A(C  11,C   8,H  14)          108.7370         0.323925   
     48. A(C   6,C   8,H  14)          110.5349         0.322277   
     49. A(O   0,C   8,H  14)          107.7861         0.334125   
     50. A(O   0,C   8,C   6)          109.8863         0.376050   
     51. A(C   6,C   8,C  11)          112.3662         0.364105   
     52. A(C  10,C   9,H  15)          111.1262         0.322943   
     53. A(C   7,C   9,H  15)          110.4856         0.323319   
     54. A(O   3,C   9,H  15)          106.6599         0.335517   
     55. A(C   7,C   9,C  10)          110.7292         0.363628   
     56. A(O   3,C   9,C  10)          108.5022         0.377925   
     57. A(O   3,C   9,C   7)          109.2155         0.378389   
     58. A(O   4,C  10,H  16)          107.3817         0.335407   
     59. A(O   0,C  10,H  16)          109.9216         0.335470   
     60. A(O   4,C  10,C   9)          107.8653         0.377955   
     61. A(O   0,C  10,C   9)          110.9934         0.378029   
     62. A(O   0,C  10,O   4)          109.7341         0.393596   
     63. A(C   9,C  10,H  16)          110.8502         0.322814   
     64. A(H  17,C  11,H  18)          108.8102         0.289420   
     65. A(C   8,C  11,H  18)          111.2689         0.324715   
     66. A(O   5,C  11,H  18)          108.6465         0.338374   
     67. A(C   8,C  11,H  17)          112.0537         0.324564   
     68. A(O   5,C  11,C   8)          108.6240         0.382102   
     69. A(O   5,C  11,H  17)          107.3051         0.338214   
     70. D(H  12,C   6,O   1,H  19)   -170.5837         0.018543   
     71. D(C   7,C   6,O   1,H  19)     70.0143         0.018543   
     72. D(C   8,C   6,O   1,H  19)    -50.1448         0.018543   
     73. D(C   9,C   7,C   6,C   8)     52.5739         0.011218   
     74. D(O   2,C   7,C   6,C   8)    173.6745         0.011218   
     75. D(C   6,C   7,O   2,H  20)   -178.8237         0.019130   
     76. D(O   2,C   7,C   6,O   1)     53.9779         0.011218   
     77. D(H  13,C   7,O   2,H  20)     62.1689         0.019130   
     78. D(O   2,C   7,C   6,H  12)    -63.3413         0.011218   
     79. D(C   9,C   7,C   6,H  12)    175.5581         0.011218   
     80. D(C   9,C   7,O   2,H  20)    -56.6190         0.019130   
     81. D(C   9,C   7,C   6,O   1)    -67.1227         0.011218   
     82. D(C   6,C   8,O   0,C  10)     62.2925         0.020940   
     83. D(C  11,C   8,O   0,C  10)   -175.2152         0.020940   
     84. D(H  14,C   8,O   0,C  10)    -58.2239         0.020940   
     85. D(C  11,C   8,C   6,C   7)   -176.6696         0.010946   
     86. D(C  11,C   8,C   6,O   1)    -56.6173         0.010946   
     87. D(O   0,C   8,C   6,H  12)   -179.4929         0.010946   
     88. D(O   0,C   8,C   6,C   7)    -57.1821         0.010946   
     89. D(C  11,C   8,C   6,H  12)     61.0196         0.010946   
     90. D(O   0,C   8,C   6,O   1)     62.8702         0.010946   
     91. D(C  10,C   9,C   7,H  13)     70.6719         0.011266   
     92. D(C  10,C   9,C   7,C   6)    -50.7284         0.011266   
     93. D(C  10,C   9,C   7,O   2)   -172.3828         0.011266   
     94. D(O   3,C   9,C   7,H  13)    -48.7496         0.011266   
     95. D(O   3,C   9,C   7,C   6)   -170.1498         0.011266   
     96. D(H  15,C   9,O   3,H  21)    -61.9713         0.018774   
     97. D(C  10,C   9,O   3,H  21)     57.8214         0.018774   
     98. D(C   7,C   9,O   3,H  21)    178.6119         0.018774   
     99. D(O   3,C   9,C   7,O   2)     68.1957         0.011266   
    100. D(O   4,C  10,O   0,C   8)   -179.5328         0.021924   
    101. D(O   4,C  10,C   9,H  15)     50.5462         0.011116   
    102. D(O   4,C  10,C   9,C   7)    173.7343         0.011116   
    103. D(O   4,C  10,C   9,O   3)    -66.4159         0.011116   
    104. D(O   0,C  10,C   9,H  15)    -69.6970         0.011116   
    105. D(O   0,C  10,C   9,C   7)     53.4912         0.011116   
    106. D(O   0,C  10,C   9,O   3)    173.3409         0.011116   
    107. D(H  16,C  10,O   4,H  22)     35.8202         0.020380   
    108. D(C   9,C  10,O   4,H  22)    155.3416         0.020380   
    109. D(O   0,C  10,O   4,H  22)    -83.6261         0.020380   
    110. D(H  16,C  10,O   0,C   8)     62.5895         0.021924   
    111. D(C   9,C  10,O   0,C   8)    -60.4058         0.021924   
    112. D(H  17,C  11,C   8,H  14)   -176.1533         0.011609   
    113. D(H  17,C  11,C   8,C   6)     61.1552         0.011609   
    114. D(H  17,C  11,C   8,O   0)    -59.7864         0.011609   
    115. D(O   5,C  11,C   8,H  14)    -57.7807         0.011609   
    116. D(O   5,C  11,C   8,C   6)    179.5278         0.011609   
    117. D(O   5,C  11,C   8,O   0)     58.5861         0.011609   
    118. D(H  18,C  11,O   5,H  23)   -179.6715         0.020408   
    119. D(H  17,C  11,O   5,H  23)     62.8403         0.020408   
    120. D(C   8,C  11,O   5,H  23)    -58.4924         0.020408   
    -----------------------------------------------------------------

Number of atoms                         .... 24
Number of degrees of freedom            .... 120


         *************************************************************
         *                GEOMETRY OPTIMIZATION CYCLE   1            *
         *************************************************************
---------------------------------
CARTESIAN COORDINATES (ANGSTROEM)
---------------------------------
  O      0.817300    0.966700   -0.236600
  O      0.354200   -1.664900   -1.246300
  O     -2.058000   -1.991200    0.096800
  O     -2.781500    0.790500    0.419700
  O     -0.827100    2.584000   -0.596400
  O      3.474400    0.614300    0.359500
  C      0.283100   -1.370300    0.150300
  C     -1.148200   -0.979300    0.519700
  C      1.234800   -0.211000    0.465100
  C     -1.538600    0.349600   -0.126600
  C     -0.479500    1.418800    0.151100
  C      2.669200   -0.507400    0.043700
  H      0.575500   -2.281700    0.682300
  H     -1.239200   -0.903900    1.610500
  H      1.222600    0.016500    1.539100
  H     -1.696900    0.220500   -1.204100
  H     -0.476100    1.698900    1.212100
  H      2.754300   -0.676100   -1.034500
  H      3.064800   -1.381100    0.569700
  H      0.245800   -0.834400   -1.739700
  H     -2.953700   -1.695100    0.333200
  H     -2.993200    1.645800    0.008000
  H     -0.425400    3.344200   -0.142500
  H      3.106900    1.382000   -0.110900

----------------------------
CARTESIAN COORDINATES (A.U.)
----------------------------
  NO LB      ZA    FRAG     MASS         X           Y           Z
   0 O     8.0000    0    15.999    1.544473    1.826798   -0.447109
   1 O     8.0000    0    15.999    0.669341   -3.146205   -2.355166
   2 O     8.0000    0    15.999   -3.889056   -3.762823    0.182925
   3 O     8.0000    0    15.999   -5.256273    1.493829    0.793118
   4 O     8.0000    0    15.999   -1.562992    4.883052   -1.127033
   5 O     8.0000    0    15.999    6.565664    1.160859    0.679357
   6 C     6.0000    0    12.011    0.534981   -2.589492    0.284026
   7 C     6.0000    0    12.011   -2.169784   -1.850609    0.982091
   8 C     6.0000    0    12.011    2.333434   -0.398732    0.878912
   9 C     6.0000    0    12.011   -2.907533    0.660648   -0.239239
  10 C     6.0000    0    12.011   -0.906124    2.681143    0.285538
  11 C     6.0000    0    12.011    5.044057   -0.958847    0.082581
  12 H     1.0000    0     1.008    1.087537   -4.311788    1.289360
  13 H     1.0000    0     1.008   -2.341749   -1.708123    3.043404
  14 H     1.0000    0     1.008    2.310379    0.031180    2.908477
  15 H     1.0000    0     1.008   -3.206676    0.416685   -2.275419
  16 H     1.0000    0     1.008   -0.899699    3.210456    2.290537
  17 H     1.0000    0     1.008    5.204873   -1.277644   -1.954922
  18 H     1.0000    0     1.008    5.791633   -2.609901    1.076577
  19 H     1.0000    0     1.008    0.464495   -1.576787   -3.287557
  20 H     1.0000    0     1.008   -5.581684   -3.203275    0.629657
  21 H     1.0000    0     1.008   -5.656328    3.110111    0.015118
  22 H     1.0000    0     1.008   -0.803889    6.319622   -0.269286
  23 H     1.0000    0     1.008    5.871190    2.611602   -0.209571

--------------------------------
INTERNAL COORDINATES (ANGSTROEM)
--------------------------------
 O      0   0   0     0.000000000000     0.00000000     0.00000000
 O      1   0   0     2.856444338684     0.00000000     0.00000000
 O      2   1   0     2.780125561913    94.47530447     0.00000000
 O      3   2   1     2.892329778915    99.09631715    24.28680735
 O      1   2   3     2.334345023770   118.00849671   303.99064639
 O      1   2   3     2.745851667516    96.62584506   135.85964117
 C      2   1   3     1.429103190816    58.17728281   308.92552962
 C      3   2   1     1.424963880244    60.39973291   341.93307356
 C      1   2   3     1.433061907246    57.53369545    87.38724572
 C      4   3   2     1.427458199038    56.11105175   354.54209594
 C      1   2   3     1.427023454608   103.92082752   338.65961758
 C      6   1   2     1.416434809654    60.20734184   348.00940061
 H      7   2   1     1.095066993384   106.85273946   209.94745368
 H      8   3   2     1.097183120541   106.91177822   214.21928317
 H      9   1   2     1.097898488022   107.78614949   209.55261852
 H     10   4   3     1.096691364970   106.65987920    88.05865520
 H     11   1   2     1.097355261527   109.92163093   122.88392763
 H     12   6   1     1.094630960644   107.30510905    92.00400278
 H     12   6   1     1.093858788875   108.64652734   209.49220107
 H      2   1   3     0.972072204108    53.87052719   104.58184493
 H      3   2   1     0.972542369257   151.73905406    52.73408489
 H      4   3   2     0.972549160711   148.53882778    60.50762599
 H      5   1   2     0.972261353752   100.29472526   178.65369617
 H      6   1   2     0.972468868396    55.10911339   133.51906661

---------------------------
INTERNAL COORDINATES (A.U.)
---------------------------
 O      0   0   0     0.000000000000     0.00000000     0.00000000
 O      1   0   0     5.397897516903     0.00000000     0.00000000
 O      2   1   0     5.253675929929    94.47530447     0.00000000
 O      3   2   1     5.465711171135    99.09631715    24.28680735
 O      1   2   3     4.411272797007   118.00849671   303.99064639
 O      1   2   3     5.188907655976    96.62584506   135.85964117
 C      2   1   3     2.700613647755    58.17728281   308.92552962
 C      3   2   1     2.692791484391    60.39973291   341.93307356
 C      1   2   3     2.708094537650    57.53369545    87.38724572
 C      4   3   2     2.697505063802    56.11105175   354.54209594
 C      1   2   3     2.696683515890   103.92082752   338.65961758
 C      6   1   2     2.676673876799    60.20734184   348.00940061
 H      7   2   1     2.069376715793   106.85273946   209.94745368
 H      8   3   2     2.073375616584   106.91177822   214.21928317
 H      9   1   2     2.074727465207   107.78614949   209.55261852
 H     10   4   3     2.072446333230   106.65987920    88.05865520
 H     11   1   2     2.073700915903   109.92163093   122.88392763
 H     12   6   1     2.068552733328   107.30510905    92.00400278
 H     12   6   1     2.067093540157   108.64652734   209.49220107
 H      2   1   3     1.836950248162    53.87052719   104.58184493
 H      3   2   1     1.837838731531   151.73905406    52.73408489
 H      4   3   2     1.837851565519   148.53882778    60.50762599
 H      5   1   2     1.837307689187   100.29472526   178.65369617
 H      6   1   2     1.837699835033    55.10911339   133.51906661

---------------------
BASIS SET INFORMATION
---------------------
There are 3 groups of distinct atoms

 Group   1 Type O   : 10s4p1d contracted to 3s2p1d pattern {631/31/1}
 Group   2 Type C   : 10s4p1d contracted to 3s2p1d pattern {631/31/1}
 Group   3 Type H   : 4s1p contracted to 2s1p pattern {31/1}

Atom   0O    basis set group =>   1
Atom   1O    basis set group =>   1
Atom   2O    basis set group =>   1
Atom   3O    basis set group =>   1
Atom   4O    basis set group =>   1
Atom   5O    basis set group =>   1
Atom   6C    basis set group =>   2
Atom   7C    basis set group =>   2
Atom   8C    basis set group =>   2
Atom   9C    basis set group =>   2
Atom  10C    basis set group =>   2
Atom  11C    basis set group =>   2
Atom  12H    basis set group =>   3
Atom  13H    basis set group =>   3
Atom  14H    basis set group =>   3
Atom  15H    basis set group =>   3
Atom  16H    basis set group =>   3
Atom  17H    basis set group =>   3
Atom  18H    basis set group =>   3
Atom  19H    basis set group =>   3
Atom  20H    basis set group =>   3
Atom  21H    basis set group =>   3
Atom  22H    basis set group =>   3
Atom  23H    basis set group =>   3
---------------------------------
AUXILIARY/J BASIS SET INFORMATION
---------------------------------
There are 3 groups of distinct atoms

 Group   1 Type O   : 12s5p4d2f1g contracted to 6s4p3d1f1g pattern {711111/2111/211/2/1}
 Group   2 Type C   : 12s5p4d2f1g contracted to 6s4p3d1f1g pattern {711111/2111/211/2/1}
 Group   3 Type H   : 5s2p1d contracted to 3s1p1d pattern {311/2/1}

Atom   0O    basis set group =>   1
Atom   1O    basis set group =>   1
Atom   2O    basis set group =>   1
Atom   3O    basis set group =>   1
Atom   4O    basis set group =>   1
Atom   5O    basis set group =>   1
Atom   6C    basis set group =>   2
Atom   7C    basis set group =>   2
Atom   8C    basis set group =>   2
Atom   9C    basis set group =>   2
Atom  10C    basis set group =>   2
Atom  11C    basis set group =>   2
Atom  12H    basis set group =>   3
Atom  13H    basis set group =>   3
Atom  14H    basis set group =>   3
Atom  15H    basis set group =>   3
Atom  16H    basis set group =>   3
Atom  17H    basis set group =>   3
Atom  18H    basis set group =>   3
Atom  19H    basis set group =>   3
Atom  20H    basis set group =>   3
Atom  21H    basis set group =>   3
Atom  22H    basis set group =>   3
Atom  23H    basis set group =>   3


           ************************************************************
           *        Program running with 2 parallel MPI-processes     *
           *              working on a common directory               *
           ************************************************************
------------------------------------------------------------------------------
                             ORCA STARTUP CALCULATIONS
                           -- RI-GTO INTEGRALS CHOSEN --
------------------------------------------------------------------------------
------------------------------------------------------------------------------
                   ___                                                        
                  /   \      - P O W E R E D   B Y -                         
                 /     \                                                     
                 |  |  |   _    _      __       _____    __    __             
                 |  |  |  | |  | |    /  \     |  _  \  |  |  /  |          
                  \  \/   | |  | |   /    \    | | | |  |  | /  /          
                 / \  \   | |__| |  /  /\  \   | |_| |  |  |/  /          
                |  |  |   |  __  | /  /__\  \  |    /   |      \           
                |  |  |   | |  | | |   __   |  |    \   |  |\   \          
                \     /   | |  | | |  |  |  |  | |\  \  |  | \   \       
                 \___/    |_|  |_| |__|  |__|  |_| \__\ |__|  \__/        
                                                                              
                      - O R C A' S   B I G   F R I E N D -                    
                                      &                                       
                       - I N T E G R A L  F E E D E R -                       
                                                                              
 v1 FN, 2020, v2 2021, v3 2022-2024                                           
------------------------------------------------------------------------------


----------------------
SHARK INTEGRAL PACKAGE
----------------------

Number of atoms                             ...     24
Number of basis functions                   ...    228
Number of shells                            ...    108
Maximum angular momentum                    ...      2
Integral batch strategy                     ... SHARK/LIBINT Hybrid
RI-J (if used) integral strategy            ... SPLIT-RIJ (Revised 2003 algorithm where possible)
Printlevel                                  ...      1
Contraction scheme used                     ... SEGMENTED contraction
Prescreening option                         ... SCHWARTZ
   Thresh                                   ... 2.500e-11
   Tcut                                     ... 2.500e-12
   Tpresel                                  ... 2.500e-12 
Coulomb Range Separation                    ... NOT USED
Exchange Range Separation                   ... NOT USED
Multipole approximations                    ... NOT USED
Finite Nucleus Model                        ... NOT USED
CABS basis                                  ... NOT available
Auxiliary Coulomb fitting basis             ... AVAILABLE
   # of basis functions in Aux-J            ...    720
   # of shells in Aux-J                     ...    240
   Maximum angular momentum in Aux-J        ...      4
Auxiliary J/K fitting basis                 ... NOT available
Auxiliary Correlation fitting basis         ... NOT available
Auxiliary 'external' fitting basis          ... NOT available

Checking pre-screening integrals            ... done (  0.0 sec) Dimension = 108
   => SHARK Basis and OBASIS are compatible. Storing Pre-screening
Shell pair information
Shell pair cut-off parameter TPreSel        ...   2.5e-12
Total number of shell pairs                 ...      5886
Shell pairs after pre-screening             ...      5164
Total number of primitive shell pairs       ...     29208
Primitive shell pairs kept                  ...     16339
          la=0 lb=0:   1608 shell pairs
          la=1 lb=0:   1889 shell pairs
          la=1 lb=1:    583 shell pairs
          la=2 lb=0:    629 shell pairs
          la=2 lb=1:    384 shell pairs
          la=2 lb=2:     71 shell pairs

Checking whether 4 symmetric matrices of dimension 228 fit in memory
:Max Core in MB      =   3000.00
 MB in use           =     10.41
 MB left             =   2989.59
 MB needed           =      0.80
 Data fit in memory  = YES
Calculating RI/J V-Matrix + Cholesky decomp.... done (  0.0 sec)
Calculating Nuclear repulsion               ... done (  0.0 sec) ENN=    832.064878412559 Eh

Diagonalization of the overlap matrix:
Smallest eigenvalue                        ... 2.098e-03
Time for diagonalization                   ...    0.009 sec
Threshold for overlap eigenvalues          ... 1.000e-07
Number of eigenvalues below threshold      ... 0
Time for construction of square roots      ...    0.003 sec
Total time needed                          ...    0.014 sec

-------------------
DFT GRID GENERATION
-------------------

General Integration Accuracy     IntAcc      ... 4.388
Radial Grid Type                 RadialGrid  ... OptM3 with GC (2021)
Angular Grid (max. ang.)         AngularGrid ... 4 (Lebedev-302)
Angular grid pruning method      GridPruning ... 4 (adaptive)
Weight generation scheme         WeightScheme... mBecke (2022)
Basis function cutoff            BFCut       ... 1.0000e-11
Integration weight cutoff        WCut        ... 1.0000e-14
Partially contracted basis set               ... off
Rotationally invariant grid construction     ... off
Angular grids for H and He will be reduced by one unit

Total number of grid points                  ...   110327
Total number of batches                      ...     1735
Average number of points per batch           ...       63
Average number of grid points per atom       ...     4597

--------------------
COSX GRID GENERATION
--------------------

GRIDX 1
-------
General Integration Accuracy     IntAcc      ... 3.816
Radial Grid Type                 RadialGrid  ... OptM3 with GC (2021)
Angular Grid (max. ang.)         AngularGrid ... 1 (Lebedev-50)
Angular grid pruning method      GridPruning ... 4 (adaptive)
Weight generation scheme         WeightScheme... mBecke (2022)
Basis function cutoff            BFCut       ... 1.0000e-11
Integration weight cutoff        WCut        ... 1.0000e-14
Partially contracted basis set               ... on
Rotationally invariant grid construction     ... off
Angular grids for H and He will be reduced by one unit

Total number of grid points                  ...    14053
Total number of batches                      ...      125
Average number of points per batch           ...      112
Average number of grid points per atom       ...      586
UseSFitting                                  ... on

GRIDX 2
-------
General Integration Accuracy     IntAcc      ... 4.020
Radial Grid Type                 RadialGrid  ... OptM3 with GC (2021)
Angular Grid (max. ang.)         AngularGrid ... 2 (Lebedev-110)
Angular grid pruning method      GridPruning ... 4 (adaptive)
Weight generation scheme         WeightScheme... mBecke (2022)
Basis function cutoff            BFCut       ... 1.0000e-11
Integration weight cutoff        WCut        ... 1.0000e-14
Partially contracted basis set               ... on
Rotationally invariant grid construction     ... off
Angular grids for H and He will be reduced by one unit

Total number of grid points                  ...    30269
Total number of batches                      ...      248
Average number of points per batch           ...      122
Average number of grid points per atom       ...     1261
UseSFitting                                  ... on

GRIDX 3
-------
General Integration Accuracy     IntAcc      ... 4.338
Radial Grid Type                 RadialGrid  ... OptM3 with GC (2021)
Angular Grid (max. ang.)         AngularGrid ... 3 (Lebedev-194)
Angular grid pruning method      GridPruning ... 4 (adaptive)
Weight generation scheme         WeightScheme... mBecke (2022)
Basis function cutoff            BFCut       ... 1.0000e-11
Integration weight cutoff        WCut        ... 1.0000e-14
Partially contracted basis set               ... on
Rotationally invariant grid construction     ... off
Angular grids for H and He will be reduced by one unit

Total number of grid points                  ...    66217
Total number of batches                      ...      531
Average number of points per batch           ...      124
Average number of grid points per atom       ...     2759
UseSFitting                                  ... on
Grids setup in   2.0 sec
Initializing property integral containers    ... done (  0.0 sec)

SHARK setup successfully completed in   2.2 seconds

Maximum memory used throughout the entire STARTUP-calculation: 37.7 MB


           ************************************************************
           *        Program running with 2 parallel MPI-processes     *
           *              working on a common directory               *
           ************************************************************
-------------------------------------------------------------------------------
                                 ORCA GUESS
                   Start orbitals & Density for SCF / CASSCF
-------------------------------------------------------------------------------

------------
SCF SETTINGS
------------
Hamiltonian:
 Density Functional     Method          .... DFT(GTOs)
 Exchange Functional    Exchange        .... B88
   X-Alpha parameter    XAlpha          ....  0.666667
   Becke's b parameter  XBeta           ....  0.004200
 Correlation Functional Correlation     .... LYP
 LDA part of GGA corr.  LDAOpt          .... VWN-5
 Gradients option       PostSCFGGA      .... off
 Hybrid DFT is turned on
   Fraction HF Exchange ScalHFX         ....  0.200000
   Scaling of DF-GGA-X  ScalDFX         ....  0.720000
   Scaling of DF-GGA-C  ScalDFC         ....  0.810000
   Scaling of DF-LDA-C  ScalLDAC        ....  1.000000
   Perturbative correction              ....  0.000000
   NL short-range parameter             ....  4.800000
 RI-approximation to the Coulomb term is turned on
   Number of AuxJ basis functions       .... 720
   RIJ-COSX (HFX calculated with COS-X)).... on


General Settings:
 Integral files         IntName         .... /kaggle/working/Gal-1/Gal_InterFrag
 Hartree-Fock type      HFTyp           .... RHF
 Total Charge           Charge          ....    0
 Multiplicity           Mult            ....    1
 Number of Electrons    NEL             ....   96
 Basis Dimension        Dim             ....  228
 Nuclear Repulsion      ENuc            ....    832.0648784126 Eh

Convergence Acceleration:
 AO-DIIS                CNVDIIS         .... on
   Start iteration      DIISMaxIt       ....    12
   Startup error        DIISStart       ....  0.200000
   # of expansion vecs  DIISMaxEq       ....     5
   Bias factor          DIISBfac        ....   1.050
   Max. coefficient     DIISMaxC        ....  10.000
 MO-DIIS                CNVKDIIS        .... off
 Trust-Rad. Augm. Hess. CNVTRAH         .... auto
   Auto Start mean grad. ratio tolernc. ....  1.125000
   Auto Start start iteration           ....    50
   Auto Start num. interpolation iter.  ....    10
   Max. Number of Micro iterations      ....    24
   Max. Number of Macro iterations      .... Maxiter - #DIIS iter
   Number of Davidson start vectors     ....     2
   Converg. threshold    (grad. norm)   ....   1.000e-05
   Grad. Scal. Fac. for Micro threshold ....   0.100
   Minimum threshold for Micro iter.    ....   1.000e-02
   NR start threshold (gradient norm)   ....   1.000e-04
   Initial trust radius                 ....   0.400
   Minimum AH scaling param. (alpha)    ....   1.000
   Maximum AH scaling param. (alpha)    .... 1000.000
   Quad. conv. algorithm                .... NR
   White noise on init. David. guess    .... on
   Maximum white noise                  ....   0.010
   Pseudo random numbers                .... off
   Inactive MOs                         .... canonical
   Orbital update algorithm             .... Taylor
   Preconditioner                       .... Diag
   Full preconditioner red. dimension   ....   250
 SOSCF                 CNVSOSCF           .... on
   Start iteration     SOSCFMaxIt         ....   150
   Startup grad/error  SOSCFStart         ....  0.000330
   Hessian update      SOSCFHessUp        .... L-BFGS
   Autom. constraints  SOSCFAutoConstrain .... off
 Level Shifting         CNVShift        .... on
   Level shift para.    LevelShift      ....    0.2500
   Turn off err/grad.   ShiftErr        ....    0.0010
 Zerner damping         CNVZerner       .... off
 Static damping         CNVDamp         .... on
   Fraction old density DampFac         ....    0.7000
   Max. Damping (<1)    DampMax         ....    0.9800
   Min. Damping (>=0)   DampMin         ....    0.0000
   Turn off err/grad.   DampErr         ....    0.1000

SCF Procedure:
 Maximum # iterations   MaxIter         ....  1000
 SCF integral mode      SCFMode         .... Direct
   Integral package                     .... SHARK and LIBINT hybrid scheme
 Reset frequency        DirectResetFreq ....    20
 Integral Threshold     Thresh          ....  2.500e-11 Eh
 Primitive CutOff       TCut            ....  2.500e-12 Eh

Convergence Tolerance:
 Convergence Check Mode ConvCheckMode   .... Total+1el-Energy
 Convergence forced     ConvForced      .... 0
 Energy Change          TolE            ....  1.000e-08 Eh
 1-El. energy change                    ....  1.000e-05 Eh
 Orbital Gradient       TolG            ....  1.000e-05
 Orbital Rotation angle TolX            ....  1.000e-05
 DIIS Error             TolErr          ....  5.000e-07

------------------------------
INITIAL GUESS: MODEL POTENTIAL
------------------------------
Loading Hartree-Fock densities                     ... done
Calculating cut-offs                               ... done
Initializing the effective Hamiltonian             ... done
Setting up the integral package (SHARK)            ... done
Starting the Coulomb interaction                   ... done (   0.2 sec)
Making the grid                                    ... done (   0.2 sec)
Mapping shells                                     ... done
Starting the XC term evaluation                    ... done (   0.1 sec)
  promolecular density results
     # of electrons  =     95.996237047
     EX              =    -83.655065531
     EC              =     -3.356401766
     EX+EC           =    -87.011467297
Transforming the Hamiltonian                       ... done (   0.0 sec)
Diagonalizing the Hamiltonian                      ... done (   0.0 sec)
Back transforming the eigenvectors                 ... done (   0.0 sec)
Now organizing SCF variables                       ... done
                      ------------------
                      INITIAL GUESS DONE (   0.6 sec)
                      ------------------
             **** ENERGY FILE WAS UPDATED (/kaggle/working/Gal-1/Gal_InterFrag.en.tmp) ****
Finished Guess after   0.9 sec
Maximum memory used throughout the entire GUESS-calculation: 15.1 MB


           ************************************************************
           *        Program running with 2 parallel MPI-processes     *
           *              working on a common directory               *
           ************************************************************

-------------------------------------------------------------------------------------------
                                      ORCA LEAN-SCF
                              memory conserving SCF solver
-------------------------------------------------------------------------------------------

--------------------
CPCM SOLVATION MODEL
--------------------
CPCM parameters:
  Epsilon                                         ...      78.3550
  Refrac                                          ...       1.3328
  Rsolv                                           ...       1.3000
  Surface type                                    ... GAUSSIAN VDW
  Discretization scheme                           ... Constant charge density
    Threshold for H atoms                         ...       5.0000 (charges/Ang^2)
    Threshold for non-H atoms                     ...       5.0000 (charges/Ang^2)
  Epsilon function type                           ...         CPCM
Solvent:                                          ... WATER
SMD-CDS solvent descriptors:
  Soln                                            ...       1.3328
  Soln25                                          ...       1.3323
  Sola                                            ...       0.0000
  Solb                                            ...       0.0000
  Solg                                            ...       0.0000
  Solc                                            ...       0.0000
  Solh                                            ...       0.0000
Radii:
  Scheme                                          ... Element-dependent radii
  Radius for O  used is    2.8724 Bohr (=   1.5200 Ang.)
  Radius for C  used is    3.4960 Bohr (=   1.8500 Ang.)
  Radius for H  used is    2.2677 Bohr (=   1.2000 Ang.)
Calculating surface                               ...        done! (  0.0s)
Cavity surface points                             ...         1618
Cavity Volume                                     ...    1045.2736
Cavity Surface-area                               ...     663.7378
Calculating surface distance matrix               ...        done! (  0.0s)
Performing Cholesky decomposition & store         ...        done! (  0.1s)
Overall time for CPCM initialization              ...                 0.1s

----------------------------------------D-I-I-S--------------------------------------------
Iteration    Energy (Eh)           Delta-E    RMSDP     MaxDP     DIISErr   Damp  Time(sec)
-------------------------------------------------------------------------------------------
               ***  Starting incremental Fock matrix formation  ***
    1    -686.5114291439988392     0.00e+00  3.91e-03  7.56e-02  2.42e-01  0.700   5.4
    2    -686.6700424836390084    -1.59e-01  2.41e-03  4.29e-02  1.06e-01  0.700   3.0
                               ***Turning on AO-DIIS***
    3    -686.7291153021621994    -5.91e-02  8.61e-04  1.34e-02  3.09e-02  0.700   2.8
    4    -686.7661979842764595    -3.71e-02  1.35e-03  2.11e-02  1.50e-02  0.000   2.6
    5    -686.8488592375438202    -8.27e-02  2.60e-04  4.54e-03  4.14e-03  0.000   2.6
    6    -686.8491047775157767    -2.46e-04  7.99e-05  1.36e-03  9.15e-04  0.000   2.4
               *** Restarting incremental Fock matrix formation ***
                             ****Resetting DIIS****
                              *** Initializing SOSCF ***
---------------------------------------S-O-S-C-F--------------------------------------
Iteration    Energy (Eh)           Delta-E    RMSDP     MaxDP     MaxGrad    Time(sec)
--------------------------------------------------------------------------------------
    7    -686.8492466575426079    -1.42e-04  5.42e-05  9.81e-04  3.13e-04     5.0
               *** Restarting incremental Fock matrix formation ***
    8    -686.8492477141107884    -1.06e-06  2.91e-05  5.93e-04  8.05e-05     5.0
    9    -686.8492474684940134     2.46e-07  1.58e-05  3.11e-04  8.95e-05     3.3
   10    -686.8492486327559163    -1.16e-06  4.11e-06  1.33e-04  2.23e-05     3.1
   11    -686.8492486096783978     2.31e-08  2.37e-06  7.28e-05  3.04e-05     2.6
   12    -686.8492486518975966    -4.22e-08  2.39e-07  7.14e-06  6.75e-07     2.5
                  *** Gradient check signals convergence ***

               *****************************************************
               *                     SUCCESS                       *
               *           SCF CONVERGED AFTER  12 CYCLES          *
               *****************************************************

Recomputing exchange energy using gridx3       ... done (    7.617 sec)
Old exchange energy                            :    -16.993212929 Eh
New exchange energy                            :    -16.993199692 Eh
Exchange energy change after final integration :      0.000013237 Eh
Total energy after final integration           :   -686.849235406 Eh

SMD CDS free energy correction energy :                 3.80836     Kcal/mol
Total Energy after SMD CDS correction =              -686.843166395 Eh
             **** ENERGY FILE WAS UPDATED (/kaggle/working/Gal-1/Gal_InterFrag.en.tmp) ****

----------------
TOTAL SCF ENERGY
----------------

Total Energy       :       -686.84316639461042 Eh          -18689.95274 eV

Components:
Nuclear Repulsion  :        832.06487841255921 Eh           22641.63642 eV
Electronic Energy  :      -1518.86315329126455 Eh          -41330.36760 eV
One Electron Energy:      -2594.66194825147295 Eh          -70604.34107 eV
Two Electron Energy:       1075.79879496020840 Eh           29273.97347 eV
CPCM Dielectric    :         -0.05097376399377 Eh              -1.38707 eV
SMD CDS (Gcds)     :          0.00606901119055 Eh               0.16515 eV

Virial components:
Potential Energy   :      -1369.60353819541660 Eh          -37268.80698 eV
Kinetic Energy     :        682.76037180080630 Eh           18578.85425 eV
Virial Ratio       :          2.00597983533086

DFT components:
N(Alpha)           :       47.999991307619 electrons
N(Beta)            :       47.999991307619 electrons
N(Total)           :       95.999982615237 electrons
E(X)               :      -67.539757517266 Eh       
E(C)               :       -3.944712833088 Eh       
E(XC)              :      -71.484470350355 Eh       

CPCM Solvation Model Properties:
Surface-charge          :         -0.03751640152645
Corrected charge        :          0.00000000000000
Outlying charge corr.   :          0.00010216243595 Eh               0.00278 eV
Free-energy (cav+disp)  :          0.00606901119055 Eh               0.16515 eV

---------------
SCF CONVERGENCE
---------------

  Last Energy change         ...    4.2219e-08  Tolerance :   1.0000e-08
  Last MAX-Density change    ...    7.1425e-06  Tolerance :   1.0000e-07
  Last RMS-Density change    ...    2.3931e-07  Tolerance :   5.0000e-09
  Last DIIS Error            ...    3.1265e-04  Tolerance :   5.0000e-07
  Last Orbital Gradient      ...    6.7525e-07  Tolerance :   1.0000e-05
  Last Orbital Rotation      ...    1.3353e-06  Tolerance :   1.0000e-05


----------------
ORBITAL ENERGIES
----------------

  NO   OCC          E(Eh)            E(eV) 
   0   2.0000     -19.157353      -521.2981 
   1   2.0000     -19.155218      -521.2400 
   2   2.0000     -19.142411      -520.8915 
   3   2.0000     -19.140565      -520.8413 
   4   2.0000     -19.137443      -520.7563 
   5   2.0000     -19.132903      -520.6328 
   6   2.0000     -10.279201      -279.7113 
   7   2.0000     -10.230715      -278.3919 
   8   2.0000     -10.229732      -278.3651 
   9   2.0000     -10.227200      -278.2963 
  10   2.0000     -10.226380      -278.2739 
  11   2.0000     -10.218430      -278.0576 
  12   2.0000      -1.069495       -29.1024 
  13   2.0000      -1.028605       -27.9898 
  14   2.0000      -1.025201       -27.8971 
  15   2.0000      -1.011258       -27.5177 
  16   2.0000      -1.000758       -27.2320 
  17   2.0000      -0.996883       -27.1266 
  18   2.0000      -0.774651       -21.0793 
  19   2.0000      -0.759914       -20.6783 
  20   2.0000      -0.681178       -18.5358 
  21   2.0000      -0.638728       -17.3807 
  22   2.0000      -0.612432       -16.6651 
  23   2.0000      -0.572026       -15.5656 
  24   2.0000      -0.542592       -14.7647 
  25   2.0000      -0.525969       -14.3123 
  26   2.0000      -0.510329       -13.8867 
  27   2.0000      -0.507925       -13.8213 
  28   2.0000      -0.489128       -13.3099 
  29   2.0000      -0.461839       -12.5673 
  30   2.0000      -0.459752       -12.5105 
  31   2.0000      -0.444143       -12.0857 
  32   2.0000      -0.426422       -11.6035 
  33   2.0000      -0.421865       -11.4795 
  34   2.0000      -0.414018       -11.2660 
  35   2.0000      -0.393842       -10.7170 
  36   2.0000      -0.368714       -10.0332 
  37   2.0000      -0.365179        -9.9370 
  38   2.0000      -0.347275        -9.4498 
  39   2.0000      -0.340120        -9.2551 
  40   2.0000      -0.324439        -8.8284 
  41   2.0000      -0.321052        -8.7363 
  42   2.0000      -0.301950        -8.2165 
  43   2.0000      -0.291352        -7.9281 
  44   2.0000      -0.281665        -7.6645 
  45   2.0000      -0.271247        -7.3810 
  46   2.0000      -0.260430        -7.0867 
  47   2.0000      -0.250214        -6.8087 
  48   0.0000       0.082343         2.2407 
  49   0.0000       0.084378         2.2960 
  50   0.0000       0.098863         2.6902 
  51   0.0000       0.105576         2.8729 
  52   0.0000       0.115519         3.1434 
  53   0.0000       0.126548         3.4435 
  54   0.0000       0.144047         3.9197 
  55   0.0000       0.152292         4.1441 
  56   0.0000       0.165155         4.4941 
  57   0.0000       0.173016         4.7080 
  58   0.0000       0.184173         5.0116 
  59   0.0000       0.191780         5.2186 
  60   0.0000       0.196550         5.3484 
  61   0.0000       0.209373         5.6973 
  62   0.0000       0.217493         5.9183 
  63   0.0000       0.222342         6.0502 
  64   0.0000       0.233740         6.3604 
  65   0.0000       0.255081         6.9411 
  66   0.0000       0.267781         7.2867 
  67   0.0000       0.269607         7.3364 
  68   0.0000       0.295449         8.0396 
  69   0.0000       0.317490         8.6393 
  70   0.0000       0.330130         8.9833 
  71   0.0000       0.347228         9.4486 
  72   0.0000       0.526097        14.3158 
  73   0.0000       0.548259        14.9189 
  74   0.0000       0.559011        15.2115 
  75   0.0000       0.566148        15.4057 
  76   0.0000       0.574104        15.6222 
  77   0.0000       0.583878        15.8881 
  78   0.0000       0.612652        16.6711 
  79   0.0000       0.628056        17.0903 
  80   0.0000       0.646429        17.5902 
  81   0.0000       0.660181        17.9644 
  82   0.0000       0.665785        18.1169 
  83   0.0000       0.676458        18.4074 
  84   0.0000       0.701389        19.0858 
  85   0.0000       0.705075        19.1861 
  86   0.0000       0.721113        19.6225 
  87   0.0000       0.743906        20.2427 
  88   0.0000       0.747686        20.3456 
  89   0.0000       0.774175        21.0664 
  90   0.0000       0.789924        21.4949 
  91   0.0000       0.795540        21.6477 
  92   0.0000       0.806406        21.9434 
  93   0.0000       0.821970        22.3669 
  94   0.0000       0.831379        22.6230 
  95   0.0000       0.834086        22.6966 
  96   0.0000       0.856352        23.3025 
  97   0.0000       0.869669        23.6649 
  98   0.0000       0.884261        24.0620 
  99   0.0000       0.889382        24.2013 
 100   0.0000       0.909180        24.7400 
 101   0.0000       0.924905        25.1679 
 102   0.0000       0.928688        25.2709 
 103   0.0000       0.966328        26.2951 
 104   0.0000       0.970689        26.4138 
 105   0.0000       0.991043        26.9677 
 106   0.0000       0.999692        27.2030 
 107   0.0000       1.018358        27.7109 
 108   0.0000       1.029694        28.0194 
 109   0.0000       1.053062        28.6553 
 110   0.0000       1.061225        28.8774 
 111   0.0000       1.085237        29.5308 
 112   0.0000       1.111788        30.2533 
 113   0.0000       1.122255        30.5381 
 114   0.0000       1.155121        31.4324 
 115   0.0000       1.166789        31.7499 
 116   0.0000       1.184200        32.2237 
 117   0.0000       1.211580        32.9688 
 118   0.0000       1.220918        33.2229 
 119   0.0000       1.275498        34.7081 
 120   0.0000       1.289902        35.1000 
 121   0.0000       1.301171        35.4067 
 122   0.0000       1.316738        35.8303 
 123   0.0000       1.345752        36.6198 
 124   0.0000       1.371461        37.3194 
 125   0.0000       1.426011        38.8037 
 126   0.0000       1.438472        39.1428 
 127   0.0000       1.446772        39.3687 
 128   0.0000       1.461176        39.7606 
 129   0.0000       1.498420        40.7741 
 130   0.0000       1.540274        41.9130 
 131   0.0000       1.544437        42.0263 
 132   0.0000       1.551796        42.2265 
 133   0.0000       1.570560        42.7371 
 134   0.0000       1.593779        43.3689 
 135   0.0000       1.608823        43.7783 
 136   0.0000       1.622156        44.1411 
 137   0.0000       1.630348        44.3640 
 138   0.0000       1.671207        45.4759 
 139   0.0000       1.689253        45.9669 
 140   0.0000       1.701081        46.2888 
 141   0.0000       1.755909        47.7807 
 142   0.0000       1.764239        48.0074 
 143   0.0000       1.774315        48.2816 
 144   0.0000       1.797043        48.9000 
 145   0.0000       1.816281        49.4235 
 146   0.0000       1.819731        49.5174 
 147   0.0000       1.847208        50.2651 
 148   0.0000       1.880745        51.1777 
 149   0.0000       1.895955        51.5916 
 150   0.0000       1.907004        51.8922 
 151   0.0000       1.929910        52.5155 
 152   0.0000       1.943928        52.8970 
 153   0.0000       1.952055        53.1181 
 154   0.0000       1.973139        53.6918 
 155   0.0000       1.993481        54.2454 
 156   0.0000       2.009507        54.6815 
 157   0.0000       2.012509        54.7632 
 158   0.0000       2.045224        55.6534 
 159   0.0000       2.047685        55.7204 
 160   0.0000       2.056653        55.9644 
 161   0.0000       2.072453        56.3943 
 162   0.0000       2.092066        56.9280 
 163   0.0000       2.102783        57.2196 
 164   0.0000       2.134050        58.0704 
 165   0.0000       2.143739        58.3341 
 166   0.0000       2.149097        58.4799 
 167   0.0000       2.194326        59.7107 
 168   0.0000       2.200982        59.8918 
 169   0.0000       2.249479        61.2114 
 170   0.0000       2.263544        61.5942 
 171   0.0000       2.277133        61.9639 
 172   0.0000       2.317022        63.0494 
 173   0.0000       2.329158        63.3796 
 174   0.0000       2.359296        64.1997 
 175   0.0000       2.381415        64.8016 
 176   0.0000       2.386888        64.9505 
 177   0.0000       2.408044        65.5262 
 178   0.0000       2.418116        65.8003 
 179   0.0000       2.441079        66.4251 
 180   0.0000       2.463832        67.0443 
 181   0.0000       2.476656        67.3932 
 182   0.0000       2.493144        67.8419 
 183   0.0000       2.517339        68.5003 
 184   0.0000       2.520351        68.5822 
 185   0.0000       2.565703        69.8163 
 186   0.0000       2.582654        70.2776 
 187   0.0000       2.592142        70.5358 
 188   0.0000       2.623846        71.3985 
 189   0.0000       2.642158        71.8968 
 190   0.0000       2.658053        72.3293 
 191   0.0000       2.666181        72.5505 
 192   0.0000       2.687896        73.1414 
 193   0.0000       2.706711        73.6534 
 194   0.0000       2.716114        73.9092 
 195   0.0000       2.732914        74.3664 
 196   0.0000       2.746400        74.7334 
 197   0.0000       2.762506        75.1716 
 198   0.0000       2.777634        75.5833 
 199   0.0000       2.787779        75.8593 
 200   0.0000       2.806371        76.3652 
 201   0.0000       2.833552        77.1049 
 202   0.0000       2.860167        77.8291 
 203   0.0000       2.869404        78.0805 
 204   0.0000       2.896006        78.8043 
 205   0.0000       2.914556        79.3091 
 206   0.0000       2.923008        79.5391 
 207   0.0000       2.952579        80.3437 
 208   0.0000       2.974931        80.9520 
 209   0.0000       2.996878        81.5492 
 210   0.0000       3.009902        81.9036 
 211   0.0000       3.031777        82.4988 
 212   0.0000       3.053898        83.1008 
 213   0.0000       3.070299        83.5471 
 214   0.0000       3.115654        84.7813 
 215   0.0000       3.165393        86.1347 
 216   0.0000       3.287274        89.4513 
 217   0.0000       3.301840        89.8476 
 218   0.0000       3.357067        91.3504 
 219   0.0000       3.403178        92.6052 
 220   0.0000       3.423011        93.1449 
 221   0.0000       3.478618        94.6580 
 222   0.0000       3.482567        94.7655 
 223   0.0000       3.488678        94.9317 
 224   0.0000       3.509216        95.4906 
 225   0.0000       3.543106        96.4128 
 226   0.0000       3.557536        96.8055 
 227   0.0000       3.576411        97.3191 

                    ********************************
                    * MULLIKEN POPULATION ANALYSIS *
                    ********************************

-----------------------
MULLIKEN ATOMIC CHARGES
-----------------------
   0 O :   -0.549276
   1 O :   -0.607266
   2 O :   -0.616595
   3 O :   -0.614063
   4 O :   -0.593802
   5 O :   -0.614840
   6 C :    0.139718
   7 C :    0.169600
   8 C :    0.129493
   9 C :    0.126811
  10 C :    0.384462
  11 C :    0.056743
  12 H :    0.135410
  13 H :    0.112509
  14 H :    0.117913
  15 H :    0.116935
  16 H :    0.114393
  17 H :    0.106348
  18 H :    0.131774
  19 H :    0.346517
  20 H :    0.349338
  21 H :    0.348725
  22 H :    0.364404
  23 H :    0.344749
Sum of atomic charges:    0.0000000

--------------------------------
MULLIKEN REDUCED ORBITAL CHARGES
--------------------------------
  0 O s       :     3.878704  s :     3.878704
      pz      :     1.707365  p :     4.643928
      px      :     1.443032
      py      :     1.493531
      dz2     :     0.003973  d :     0.026643
      dxz     :     0.004835
      dyz     :     0.005985
      dx2y2   :     0.007606
      dxy     :     0.004244

  1 O s       :     3.835674  s :     3.835674
      pz      :     1.280737  p :     4.750263
      px      :     1.904951
      py      :     1.564575
      dz2     :     0.005245  d :     0.021329
      dxz     :     0.002729
      dyz     :     0.007148
      dx2y2   :     0.004408
      dxy     :     0.001799

  2 O s       :     3.844860  s :     3.844860
      pz      :     1.847056  p :     4.750464
      px      :     1.271616
      py      :     1.631792
      dz2     :     0.003126  d :     0.021271
      dxz     :     0.002995
      dyz     :     0.003883
      dx2y2   :     0.004730
      dxy     :     0.006537

  3 O s       :     3.845149  s :     3.845149
      pz      :     1.763107  p :     4.747763
      px      :     1.501533
      py      :     1.483124
      dz2     :     0.002460  d :     0.021151
      dxz     :     0.005044
      dyz     :     0.004635
      dx2y2   :     0.006494
      dxy     :     0.002518

  4 O s       :     3.849811  s :     3.849811
      pz      :     1.685534  p :     4.722941
      px      :     1.779128
      py      :     1.258279
      dz2     :     0.003012  d :     0.021050
      dxz     :     0.003756
      dyz     :     0.007755
      dx2y2   :     0.002084
      dxy     :     0.004442

  5 O s       :     3.830676  s :     3.830676
      pz      :     1.792877  p :     4.762928
      px      :     1.709006
      py      :     1.261046
      dz2     :     0.002262  d :     0.021236
      dxz     :     0.003742
      dyz     :     0.005345
      dx2y2   :     0.002894
      dxy     :     0.006993

  6 C s       :     3.160941  s :     3.160941
      pz      :     0.706369  p :     2.633565
      px      :     0.934389
      py      :     0.992807
      dz2     :     0.019451  d :     0.065776
      dxz     :     0.013926
      dyz     :     0.014411
      dx2y2   :     0.008538
      dxy     :     0.009450

  7 C s       :     3.138035  s :     3.138035
      pz      :     0.970256  p :     2.626221
      px      :     0.855163
      py      :     0.800802
      dz2     :     0.016547  d :     0.066144
      dxz     :     0.007595
      dyz     :     0.010491
      dx2y2   :     0.015351
      dxy     :     0.016160

  8 C s       :     3.161285  s :     3.161285
      pz      :     0.952975  p :     2.643925
      px      :     0.926631
      py      :     0.764320
      dz2     :     0.016807  d :     0.065297
      dxz     :     0.006728
      dyz     :     0.012620
      dx2y2   :     0.014954
      dxy     :     0.014188

  9 C s       :     3.150973  s :     3.150973
      pz      :     0.976068  p :     2.657018
      px      :     0.750151
      py      :     0.930799
      dz2     :     0.016633  d :     0.065197
      dxz     :     0.011176
      dyz     :     0.007552
      dx2y2   :     0.013533
      dxy     :     0.016303

 10 C s       :     3.062916  s :     3.062916
      pz      :     0.916012  p :     2.461625
      px      :     0.753957
      py      :     0.791656
      dz2     :     0.020109  d :     0.090997
      dxz     :     0.011512
      dyz     :     0.015936
      dx2y2   :     0.020244
      dxy     :     0.023196

 11 C s       :     3.155130  s :     3.155130
      pz      :     1.034413  p :     2.726184
      px      :     0.855602
      py      :     0.836170
      dz2     :     0.014217  d :     0.061943
      dxz     :     0.006501
      dyz     :     0.011317
      dx2y2   :     0.014566
      dxy     :     0.015340

 12 H s       :     0.853537  s :     0.853537
      pz      :     0.002721  p :     0.011053
      px      :     0.002573
      py      :     0.005759

 13 H s       :     0.876504  s :     0.876504
      pz      :     0.007361  p :     0.010987
      px      :     0.001758
      py      :     0.001867

 14 H s       :     0.871081  s :     0.871081
      pz      :     0.007223  p :     0.011006
      px      :     0.002101
      py      :     0.001681

 15 H s       :     0.872099  s :     0.872099
      pz      :     0.007244  p :     0.010966
      px      :     0.001697
      py      :     0.002025

 16 H s       :     0.875003  s :     0.875003
      pz      :     0.007269  p :     0.010604
      px      :     0.001483
      py      :     0.001853

 17 H s       :     0.882632  s :     0.882632
      pz      :     0.007107  p :     0.011020
      px      :     0.002041
      py      :     0.001872

 18 H s       :     0.857215  s :     0.857215
      pz      :     0.003304  p :     0.011011
      px      :     0.002401
      py      :     0.005306

 19 H s       :     0.615250  s :     0.615250
      pz      :     0.010108  p :     0.038232
      px      :     0.010072
      py      :     0.018053

 20 H s       :     0.612695  s :     0.612695
      pz      :     0.009925  p :     0.037968
      px      :     0.019329
      py      :     0.008714

 21 H s       :     0.613205  s :     0.613205
      pz      :     0.010898  p :     0.038070
      px      :     0.007856
      py      :     0.019317

 22 H s       :     0.597570  s :     0.597570
      pz      :     0.010707  p :     0.038026
      px      :     0.011330
      py      :     0.015988

 23 H s       :     0.617280  s :     0.617280
      pz      :     0.011983  p :     0.037971
      px      :     0.010206
      py      :     0.015782


------------------------
MULLIKEN OVERLAP CHARGES
------------------------
B(  0-O ,  4-O ) :  -0.0860 B(  0-O ,  6-C ) :  -0.0843 B(  0-O ,  8-C ) :   0.4433 
B(  0-O ,  9-C ) :  -0.0760 B(  0-O , 10-C ) :   0.4179 B(  0-O , 11-C ) :  -0.0810 
B(  0-O , 14-H ) :  -0.0911 B(  0-O , 16-H ) :  -0.0996 B(  1-O ,  6-C ) :   0.5043 
B(  1-O ,  7-C ) :  -0.1027 B(  1-O ,  8-C ) :  -0.0812 B(  1-O , 12-H ) :  -0.0703 
B(  1-O , 19-H ) :   0.5975 B(  2-O ,  6-C ) :  -0.0710 B(  2-O ,  7-C ) :   0.4878 
B(  2-O ,  9-C ) :  -0.0857 B(  2-O , 13-H ) :  -0.0864 B(  2-O , 20-H ) :   0.5986 
B(  3-O ,  7-C ) :  -0.0729 B(  3-O ,  9-C ) :   0.4649 B(  3-O , 10-C ) :  -0.0717 
B(  3-O , 15-H ) :  -0.0860 B(  3-O , 21-H ) :   0.5962 B(  4-O ,  9-C ) :  -0.0797 
B(  4-O , 10-C ) :   0.5335 B(  4-O , 16-H ) :  -0.0919 B(  4-O , 22-H ) :   0.5950 
B(  5-O ,  8-C ) :  -0.0853 B(  5-O , 11-C ) :   0.5127 B(  5-O , 17-H ) :  -0.0833 
B(  5-O , 18-H ) :  -0.0596 B(  5-O , 23-H ) :   0.6049 B(  6-C ,  7-C ) :   0.5844 
B(  6-C ,  8-C ) :   0.5695 B(  6-C , 11-C ) :  -0.0669 B(  6-C , 12-H ) :   0.7574 
B(  6-C , 13-H ) :  -0.0870 B(  6-C , 14-H ) :  -0.0930 B(  6-C , 19-H ) :  -0.0817 
B(  7-C ,  8-C ) :  -0.0529 B(  7-C ,  9-C ) :   0.6257 B(  7-C , 10-C ) :  -0.0555 
B(  7-C , 12-H ) :  -0.0822 B(  7-C , 13-H ) :   0.7354 B(  7-C , 15-H ) :  -0.0766 
B(  7-C , 20-H ) :  -0.0659 B(  8-C , 10-C ) :  -0.0514 B(  8-C , 11-C ) :   0.7274 
B(  8-C , 12-H ) :  -0.0620 B(  8-C , 14-H ) :   0.7263 B(  8-C , 17-H ) :  -0.0741 
B(  8-C , 18-H ) :  -0.0623 B(  9-C , 10-C ) :   0.5580 B(  9-C , 13-H ) :  -0.0918 
B(  9-C , 15-H ) :   0.7154 B(  9-C , 16-H ) :  -0.1204 B(  9-C , 21-H ) :  -0.0712 
B( 10-C , 15-H ) :  -0.0715 B( 10-C , 16-H ) :   0.7705 B( 11-C , 14-H ) :  -0.0715 
B( 11-C , 17-H ) :   0.7429 B( 11-C , 18-H ) :   0.7578 B( 11-C , 23-H ) :  -0.0773 
B( 17-H , 18-H ) :  -0.0769 


                     *******************************
                     * LOEWDIN POPULATION ANALYSIS *
                     *******************************

----------------------
LOEWDIN ATOMIC CHARGES
----------------------
   0 O :   -0.249473
   1 O :   -0.286400
   2 O :   -0.293681
   3 O :   -0.288255
   4 O :   -0.267688
   5 O :   -0.303917
   6 C :    0.034360
   7 C :    0.026928
   8 C :    0.025995
   9 C :    0.013231
  10 C :    0.126458
  11 C :    0.000633
  12 H :    0.090220
  13 H :    0.073690
  14 H :    0.074089
  15 H :    0.073603
  16 H :    0.064091
  17 H :    0.063595
  18 H :    0.084158
  19 H :    0.177625
  20 H :    0.188935
  21 H :    0.188159
  22 H :    0.201989
  23 H :    0.181653

-------------------------------
LOEWDIN REDUCED ORBITAL CHARGES
-------------------------------
  0 O s       :     3.497405  s :     3.497405
      pz      :     1.729181  p :     4.691562
      px      :     1.453978
      py      :     1.508403
      dz2     :     0.008331  d :     0.060506
      dxz     :     0.009901
      dyz     :     0.011924
      dx2y2   :     0.017862
      dxy     :     0.012489

  1 O s       :     3.493104  s :     3.493104
      pz      :     1.313622  p :     4.750618
      px      :     1.871209
      py      :     1.565787
      dz2     :     0.013053  d :     0.042677
      dxz     :     0.006486
      dyz     :     0.016028
      dx2y2   :     0.005672
      dxy     :     0.001438

  2 O s       :     3.494419  s :     3.494419
      pz      :     1.837448  p :     4.756760
      px      :     1.282969
      py      :     1.636343
      dz2     :     0.005578  d :     0.042502
      dxz     :     0.005960
      dyz     :     0.005842
      dx2y2   :     0.011486
      dxy     :     0.013636

  3 O s       :     3.494152  s :     3.494152
      pz      :     1.765325  p :     4.751524
      px      :     1.507644
      py      :     1.478556
      dz2     :     0.004538  d :     0.042579
      dxz     :     0.009404
      dyz     :     0.007490
      dx2y2   :     0.013976
      dxy     :     0.007171

  4 O s       :     3.502195  s :     3.502195
      pz      :     1.696482  p :     4.724594
      px      :     1.759639
      py      :     1.268473
      dz2     :     0.005153  d :     0.040899
      dxz     :     0.004396
      dyz     :     0.015775
      dx2y2   :     0.006532
      dxy     :     0.009044

[...]
13 H  pz              1.8       0.8       0.9      11.7       0.6       0.4
13 H  py              0.0       0.0       0.4       0.1       0.0       0.0
14 H  s               0.2       0.0       0.1       0.1       0.5       0.3
14 H  pz              0.7       0.0       0.4       0.6       2.0       1.0
14 H  px              0.0       0.0       0.0       0.0       0.0       0.3
15 H  s               0.4       0.7       2.9       1.8       0.0       0.0
15 H  pz              1.6       2.4      11.8       8.2       0.1       0.2
15 H  px              0.1       0.4       0.3       0.0       0.0       0.0
15 H  py              0.0       0.2       0.5       0.0       0.0       0.0
16 H  s               0.5       1.1       0.9       0.0       0.0       0.0
16 H  pz              1.6       4.2       3.7       0.3       0.1       0.0
16 H  px              0.0       0.0       0.2       0.3       0.0       0.0
16 H  py              0.3       0.4       0.3       0.0       0.0       0.0
17 H  s               0.3       0.0       0.0       0.0       0.2       1.9
17 H  pz              1.1       0.1       0.1       0.0       0.6       6.6
17 H  py              0.1       0.0       0.0       0.0       0.0       0.5
18 H  s               0.1       0.0       0.0       0.0       0.2       3.2
18 H  pz              0.1       0.0       0.0       0.0       0.2       2.8
18 H  px              0.1       0.0       0.0       0.0       0.2       1.2
18 H  py              0.2       0.0       0.0       0.0       0.6       8.3
19 H  s               0.2       0.0       0.1       0.1      11.1       0.9
19 H  pz              0.2       0.0       0.0       0.2       8.3       0.7
19 H  py              0.2       0.0       0.2       0.1      17.3       1.3
20 H  s               0.8       2.2       7.7       5.2       0.1       0.0
20 H  pz              0.1       0.3       0.8       0.6       0.0       0.0
20 H  px              1.6       4.6      15.9      10.1       0.1       0.0
20 H  py              0.5       1.1       2.3       0.8       0.0       0.0
21 H  s               2.2      10.7       0.2       3.0       0.1       0.0
21 H  pz              1.1       7.1       0.2       1.7       0.0       0.0
21 H  px              0.7       2.2       0.0       1.2       0.0       0.0
21 H  py              3.6      17.7       0.4       4.0       0.1       0.1
22 H  s              11.0       0.9       1.9       1.2       0.0       0.0
22 H  pz              4.1       0.5       0.5       0.4       0.0       0.0
22 H  px              8.3       0.9       0.8       0.6       0.0       0.0
22 H  py             15.4       1.0       3.3       1.7       0.1       0.0
23 H  s               0.2       0.0       0.2       0.2       0.8       8.7
23 H  pz              0.1       0.0       0.1       0.1       0.2       2.8
23 H  px              0.2       0.0       0.0       0.1       0.2       2.3
23 H  py              0.4       0.0       0.2       0.3       1.5      13.4



                      *****************************
                      * MAYER POPULATION ANALYSIS *
                      *****************************

  NA   - Mulliken gross atomic population
  ZA   - Total nuclear charge
  QA   - Mulliken gross atomic charge
  VA   - Mayer's total valence
  BVA  - Mayer's bonded valence
  FA   - Mayer's free valence

  ATOM       NA         ZA         QA         VA         BVA        FA
  0 O      8.5504     8.0000    -0.5504     1.8769     1.8769    -0.0000
  1 O      8.6052     8.0000    -0.6052     1.8539     1.8539     0.0000
  2 O      8.6122     8.0000    -0.6122     1.8404     1.8404    -0.0000
  3 O      8.6034     8.0000    -0.6034     1.8590     1.8590     0.0000
  4 O      8.5831     8.0000    -0.5831     1.8994     1.8994     0.0000
  5 O      8.6097     8.0000    -0.6097     1.8436     1.8436    -0.0000
  6 C      5.8465     6.0000     0.1535     3.7804     3.7804    -0.0000
  7 C      5.8353     6.0000     0.1647     3.7886     3.7886    -0.0000
  8 C      5.8919     6.0000     0.1081     3.7979     3.7979     0.0000
  9 C      5.8723     6.0000     0.1277     3.7856     3.7856    -0.0000
 10 C      5.6118     6.0000     0.3882     3.7938     3.7938    -0.0000
 11 C      5.9419     6.0000     0.0581     3.8159     3.8159     0.0000
 12 H      0.8708     1.0000     0.1292     0.9516     0.9516     0.0000
 13 H      0.8915     1.0000     0.1085     0.9507     0.9507     0.0000
 14 H      0.8770     1.0000     0.1230     0.9530     0.9530    -0.0000
 15 H      0.8881     1.0000     0.1119     0.9613     0.9613     0.0000
 16 H      0.8901     1.0000     0.1099     0.9511     0.9511    -0.0000
 17 H      0.8960     1.0000     0.1040     0.9608     0.9608     0.0000
 18 H      0.8724     1.0000     0.1276     0.9495     0.9495    -0.0000
 19 H      0.6545     1.0000     0.3455     0.8920     0.8920     0.0000
 20 H      0.6538     1.0000     0.3462     0.8888     0.8888     0.0000
 21 H      0.6476     1.0000     0.3524     0.8806     0.8806     0.0000
 22 H      0.6376     1.0000     0.3624     0.8681     0.8681     0.0000
 23 H      0.6571     1.0000     0.3429     0.8907     0.8907    -0.0000

  Mayer bond orders larger than 0.100000
B(  0-O ,  8-C ) :   0.8681 B(  0-O , 10-C ) :   0.8740 B(  1-O ,  6-C ) :   0.9332 
B(  1-O , 19-H ) :   0.8407 B(  2-O ,  7-C ) :   0.9289 B(  2-O , 20-H ) :   0.8474 
B(  3-O ,  9-C ) :   0.9208 B(  3-O , 21-H ) :   0.8478 B(  4-O , 10-C ) :   1.0001 
B(  4-O , 22-H ) :   0.8480 B(  5-O , 11-C ) :   0.9407 B(  5-O , 23-H ) :   0.8501 
B(  6-C ,  7-C ) :   0.9481 B(  6-C ,  8-C ) :   0.9413 B(  6-C , 12-H ) :   0.9316 
B(  7-C ,  9-C ) :   0.9628 B(  7-C , 13-H ) :   0.9207 B(  8-C , 11-C ) :   0.9896 
B(  8-C , 14-H ) :   0.9176 B(  9-C , 10-C ) :   0.9289 B(  9-C , 15-H ) :   0.9186 
B( 10-C , 16-H ) :   0.9236 B( 11-C , 17-H ) :   0.9319 B( 11-C , 18-H ) :   0.9447 


-------
TIMINGS
-------

Total SCF time: 0 days 0 hours 0 min 33 sec 

Total time                  ....      33.511 sec
Sum of individual times     ....      31.436 sec  ( 93.8%)

SCF preparation             ....       0.474 sec  (  1.4%)
Fock matrix formation       ....      30.570 sec  ( 91.2%)
  Startup                   ....       0.007 sec  (  0.0% of F)
  Split-RI-J                ....       2.127 sec  (  7.0% of F)
  Chain of spheres X        ....      25.178 sec  ( 82.4% of F)
  XC integration            ....       3.014 sec  (  9.9% of F)
    XC Preparation          ....       0.000 sec  (  0.0% of XC)
    Basis function eval.    ....       1.101 sec  ( 36.5% of XC)
    Density eval.           ....       0.800 sec  ( 26.6% of XC)
    XC-Functional eval.     ....       0.135 sec  (  4.5% of XC)
    XC-Potential eval.      ....       0.801 sec  ( 26.6% of XC)
  CPCM terms                ....       2.216 sec  (  7.2% of F)
Diagonalization             ....       0.000 sec  (  0.0%)
Density matrix formation    ....       0.017 sec  (  0.1%)
Total Energy calculation    ....       0.009 sec  (  0.0%)
Population analysis         ....       0.203 sec  (  0.6%)
Orbital Transformation      ....       0.027 sec  (  0.1%)
Orbital Orthonormalization  ....       0.000 sec  (  0.0%)
DIIS solution               ....       0.100 sec  (  0.3%)
  MO trafo                  ....       0.013 sec  ( 13.2 % of DIIS)
  Orb grad                  ....       0.000 sec  (  0.0 % of DIIS)
  Energy W gradient         ....       0.000 sec  (  0.0 % of DIIS)
  DIIS error                ....       0.019 sec  ( 19.0 % of DIIS)
  DIIS work                 ....       0.050 sec  ( 50.4 % of DIIS)
  Form Q                    ....       0.000 sec  (  0.0 % of DIIS)
  Form QpQm                 ....       0.000 sec  (  0.0 % of DIIS)
  Exp/Cayley                ....       0.000 sec  (  0.0 % of DIIS)
  Orb update                ....       0.000 sec  (  0.0 % of DIIS)
  Wake-sleep                ....       0.004 sec  (  3.7 % of DIIS)
SOSCF solution              ....       0.036 sec  (  0.1%)
  MO trafo                  ....       0.019 sec  ( 52.6 % of SOSCF)
  Orb grad                  ....       0.001 sec  (  2.8 % of SOSCF)
  Rot update                ....       0.001 sec  (  4.2 % of SOSCF)
  Step                      ....       0.012 sec  ( 33.2 % of SOSCF)
Finished LeanSCF after  33.6 sec

Maximum memory used throughout the entire LEANSCF-calculation: 32.9 MB


-------------------------------------------------------------------------------
                          DFT DISPERSION CORRECTION                            
                                                                               
                              DFTD3 V3.1  Rev 1                                
                          USING Becke-Johnson damping                          
-------------------------------------------------------------------------------
The B3LYP functional is recognized
Active option DFTDOPT                   ...         4   

molecular C6(AA) [au] = 4309.389386 


            DFT-D V3
 parameters
 s6 scaling factor         :     1.0000 
 a1 scaling factor         :     0.3981 
 s8 scaling factor         :     1.9889 
 a2 scaling factor         :     4.4211 
 ad hoc parameters k1-k3   :    16.0000     1.3333    -4.0000 

 Edisp/kcal,au: -25.031841411371  -0.039890774205 
 E6   /kcal   : -12.289758504 
 E8   /kcal   : -12.742082908 
 % E8         :  50.903498062 

-------------------------   ----------------
Dispersion correction           -0.039890774
-------------------------   ----------------


-------------------------   --------------------
FINAL SINGLE POINT ENERGY      -686.889408704261
-------------------------   --------------------

                                *** OPTIMIZATION RUN DONE ***



           ************************************************************
           *        Program running with 2 parallel MPI-processes     *
           *              working on a common directory               *
           ************************************************************

------------------------------------------------------------------------------
                              ORCA PROPERTY CALCULATIONS
------------------------------------------------------------------------------

GBWName                                 ... /kaggle/working/Gal-1/Gal_InterFrag.gbw
Number of atoms                         ...     24
Number of basis functions               ...    228
Max core memory                         ...   3000 MB

Electric properties:
Dipole moment                           ... YES
Quadrupole moment                       ...  NO
Static polarizability (Dipole/Dipole)   ...  NO
Static polarizability (Dipole/Quad.)    ...  NO
Static polarizability (Quad./Quad.)     ...  NO
Static polarizability (Velocity)        ...  NO
Static hyperpolarizability              ...  NO

Atomic electric properties:
Dipole moment                           ...  NO
Quadrupole moment                       ...  NO
Static polarizability                   ...  NO

Choice of electric origin               ... Center of mass
Position of electric origin             ...    -0.047511     0.058825    -0.027581

General magnetic properties:
Magnetizability                         ...  NO

EPR properties:
g-Tensor (aka g-matrix)                 ...  NO
Zero-Field splitting spin-orbit         ...  NO
Zero-field splitting spin-spin          ...  NO
Hyperfine couplings                     ...  NO (   0 nuclei)
Quadrupole couplings                    ...  NO (   0 nuclei)
Contact density                         ...  NO (   0 nuclei)

NMR properties:
Chemical shifts                         ...  NO (   0 nuclei)
Spin-rotation constants                 ...  NO (   0 nuclei)
Spin-spin couplings                     ...  NO (   0 nuclei,    0 pairs)

Choice of magnetic origin               ... GIAO
Position of magnetic origin             ...     0.000000     0.000000     0.000000

Properties with geometric perturbations:
SCF Hessian                             ...  NO
IR spectrum                             ...  NO
VCD spectrum                            ...  NO
X-ray spectroscopy properties:
SCF XES/XAS/RIXS spectra                ...  NO

SCF SOC stabilization energy            ...  NO
Diagonal Born-Oppenheimer correction    ...  NO

-------------
DIPOLE MOMENT
-------------

Method             : SCF
Type of density    : Electron Density
Multiplicity       :   1
Irrep              :   0
Energy             :  -686.8495179300564359 Eh
Basis              : AO
                                X                 Y                 Z
Electronic contribution:     -2.041227315       1.684266093      -1.117344068
Nuclear contribution   :      1.503999503       0.151547796       1.751775192
                        -----------------------------------------
Total Dipole Moment    :     -0.537227812       1.835813889       0.634431124
                        -----------------------------------------
Magnitude (a.u.)       :      2.015273979
Magnitude (Debye)      :      5.122419368



--------------------
Rotational spectrum 
--------------------
 
Rotational constants in cm-1:             0.042420             0.025083             0.017699 
Rotational constants in MHz :          1271.717619           751.983466           530.609095 

Dipole components along the rotational axes: 
x,y,z [a.u.] :     0.487377     1.861855     0.597738 
x,y,z [Debye]:     1.238814     4.732458     1.519328 

 

Dipole moment calculation done in   0.0 sec 

Maximum memory used throughout the entire PROP-calculation: 13.8 MB

--------------------------------
SUGGESTED CITATIONS FOR THIS RUN
--------------------------------

Below you find a list of papers that are relevant to this ORCA run
We neither can nor want to force you to cite these papers, but we appreciate if you do
You receive ORCA, which is the product of decades of hard work by many enthusiastic individuals, for free
The only thing we kindly ask in return is that you cite our papers,
We deeply appreciate it, if you show your appreciation for ORCA by not just citing the generic ORCA reference.

Please note that relegating all ORCA citations to the supporting information does *not* help us.
SI sections are not indexed - citations you put there will not count into any citation statistics
But we need these citations in order to attract the funding resources that allow us to do what we are doing

Therefore, if you are a happy ORCA user, please consider citing a few of the papers listed below in the main body of your paper

In addition to the list printed below, the program has created the file /kaggle/working/Gal-1/Gal_InterFrag.bibtex that contains the list in bibtex format
You can import this file easily into all common literature databanks and citation aid programs

It goes without saying that in many instances, there are alternative algorithms to achieve similar
results as the ones you have gotten from ORCA. It is, of course, also the case that in some instances
ORCA just re-implements algorithms worked out by others. We are fully aware of that and we are also
fully appreciative of our colleagues work. Hence this citation list should not be read as indicating
that the listed papers, which are focused on our own work, are the only ones worth citing. It simply
meant to make it easier for users to cite ORCA specific papers. It is not a substitute for doing your
own literature research and citing the relevant literature in a scientifically appropriate manner.

List of essential papers. We consider these as the minimum necessary citations

  1. Neese, F.
     Software update: the ORCA program system, version 6.0
     WIRES Comput. Molec. Sci. 2025 15(1), e70019
     doi.org/10.1002/wcms.70019

List of papers to cite with high priority. The work reported in these papers was absolutely
necessary for this run to complete.
Our perspective: the developers of density functionals and basis sets usually get cited in chemistry papers
Good! But without the algorithms to do something with them, the functionals or basis sets would not do anything.
Hence, in our opinion, the algorithm design and method developments papers are equally worthy of getting cited

  1. Neese, F.
     An improvement of the resolution of the identity approximation for the formation of the Coulomb matrix
     J. Comp. Chem. 2003 24(14), 1740-1747
     doi.org/10.1002/jcc.10318
  2. Neese, F.; Wennmohs, F.; Hansen, A.; Becker, U.
     Efficient, approximate and parallel Hartree-Fock and hybrid DFT calculations. A 'chain-of-spheres' algorithm for the Hartree-Fock exchange
     Chem. Phys. 2009 356(1-3), 98-109
     doi.org/10.1016/j.chemphys.2008.10.036
  3. Grimme, S.; Antony, J.; Ehrlich, S.; Krieg, H.
     A consistent and accurate ab initio parametrization of density functional dispersion correction (DFT-D) for the 94 elements H-Pu
     J. Chem. Phys. 2010 132 , 154104
     doi.org/10.1063/1.3382344
  4. Grimme, S.; Ehrlich, S.; Goerigk, L.
     Effect of the damping function in dispersion corrected density functional theory
     J. Comput. Chem. 2011 32(7), 1456-1465
     doi.org/10.1002/jcc.21759
  5. Garcia-Rates, M.; Neese, F.
     Effect of the Solute Cavity on the Solvation Energy and its Derivatives within the Framework of the Gaussian Charge Scheme
     J. Comput. Chem. 2020 41 , 922-939
     doi.org/10.1002/jcc.26139
  6. Helmich-Paris, B.; de Souza, B.; Neese, F.; Izsák, R.
     An improved chain of spheres for exchange algorithm
     J. Chem. Phys. 2021 155(10), 104109
     doi.org/10.1063/5.0058766
  7. Neese, F.
     The SHARK Integral Generation and Digestion System
     J. Comp. Chem. 2022 44(3), 381
     doi.org/10.1002/jcc.26942

List of suggested additional citations. These are papers that are important in the 'surrounding' of 
of this run, or papers that preceded the highly important papers. If you like your results we are grateful for a citation.

  1. Izsak, R.; Neese, F.
     An overlap fitted chain of spheres exchange method
     J. Chem. Phys. 2011 135 , 144105
     doi.org/10.1063/1.3646921
  2. Izsak, R.; Hansen, A.; Neese, F.
     The resolution of identity and chain of spheres approximations for the LPNO-CCSD singles Fock term
     Molec. Phys. 2012 110 , 2413-2417
     doi.org/10.1080/00268976.2012.687466
  3. Neese, F.
     The ORCA program system
     WIRES Comput. Molec. Sci. 2012 2(1), 73-78
     doi.org/10.1002/wcms.81
  4. Izsak, R.; Neese, F.; Klopper, W.
     Robust fitting techniques in the chain of spheres approximation to the Fock exchange: The role of the complementary space
     J. Chem. Phys. 2013 139 , 
     doi.org/10.1063/1.4819264
  5. Neese, F.
     Software update: the ORCA program system, version 4.0
     WIRES Comput. Molec. Sci. 2018 8(1), 1-6
     doi.org/10.1002/wcms.1327
  6. Neese, F.; Wennmohs, F.; Becker, U.; Riplinger, C.
     The ORCA quantum chemistry program package
     J. Chem. Phys. 2020 152(22), 224108
     doi.org/10.1063/5.0004608
  7. Neese, F.
     Software update: The ORCA program system—Version 5.0
     WIRES Comput. Molec. Sci. 2022 12(1), e1606
     doi.org/10.1002/wcms.1606

List of optional additional citations

  1. Neese, F.
     Approximate second-order SCF convergence for spin unrestricted wavefunctions
     Chem. Phys. Lett. 2000 325(1-3), 93-98
     doi.org/10.1016/s0009-2614(00)00662-x

Timings for individual modules:

Sum of individual times          ...      642.271 sec (=  10.705 min)
Startup calculation              ...       23.580 sec (=   0.393 min)   3.7 %
SCF iterations                   ...      368.047 sec (=   6.134 min)  57.3 %
Property calculations            ...        0.405 sec (=   0.007 min)   0.1 %
SCF Gradient evaluation          ...      250.147 sec (=   4.169 min)  38.9 %
Geometry relaxation              ...        0.091 sec (=   0.002 min)   0.0 %
                             ****ORCA TERMINATED NORMALLY****
TOTAL RUN TIME: 0 days 0 hours 10 minutes 46 seconds 803 msec
