
                                 *****************
                                 * O   R   C   A *
                                 *****************

                                            #,                                       
                                            ###                                      
                                            ####                                     
                                            #####                                    
                                            ######                                   
                                           ########,                                 
                                     ,,################,,,,,                         
                               ,,#################################,,                 
                          ,,##########################################,,             
                       ,#########################################, ''#####,          
                    ,#############################################,,   '####,        
                  ,##################################################,,,,####,       
                ,###########''''           ''''###############################       
              ,#####''   ,,,,##########,,,,          '''####'''          '####       
            ,##' ,,,,###########################,,,                        '##       
           ' ,,###''''                  '''############,,,                           
         ,,##''                                '''############,,,,        ,,,,,,###''
      ,#''                                            '''#######################'''  
     '                                                          ''''####''''         
             ,#######,   #######,   ,#######,      ##                                
            ,#'     '#,  ##    ##  ,#'     '#,    #''#        ,####,    ,#,          
            ##       ##  ##   ,#'  ##            #'  '#       #'       ,# #          
            ##       ##  #######   ##           ,######,      #####,      #          
            '#,     ,#'  ##    ##  '#,     ,#' ,#      #,     #,   #      #          
             '#######'   ##     ##  '#######'  #'      '#     '####' #    #          



                #########################################################
                #                        -***-                          #
                #          Department of theory and spectroscopy        #
                #                                                       #
                #                      Frank Neese                      #
                #                                                       #
                #     Directorship, Architecture, Infrastructure        #
                #                    SHARK, DRIVERS                     #
                #        Core code/Algorithms in most modules           #
                #                                                       #
                #        Max Planck Institute fuer Kohlenforschung      #
                #                Kaiser Wilhelm Platz 1                 #
                #                 D-45470 Muelheim/Ruhr                 #
                #                      Germany                          #
                #                                                       #
                #                  All rights reserved                  #
                #                        -***-                          #
                #########################################################


                         Program Version 6.1.1  -  RELEASE   -
                                (GIT: $487d211c$)
                          ($2025-11-21 10:33:24 +0100$)
                                                                         
                                  - NO-DMRG VERSION -                    
                                                                         


 With contributions from (in alphabetic order):
[Max-Planck-Institut fuer Kohlenforschung]                               
  Daniel Aravena         : Magnetic Suceptibility                        
  Michael Atanasov       : Ab Initio Ligand Field Theory (pilot matlab implementation)
  Alexander A. Auer      : GIAO ZORA, VPT2 properties, NMR spectrum      
  Ute Becker             : All parallelization in ORCA, NUMFREQ, NUMCALC 
  Giovanni Bistoni       : ED, misc. LED, open-shell LED, HFLD           
  Dmytro Bykov           : pre 5.0 version of the SCF Hessian            
  Marcos Casanova-Páez   : Triplet and SCS-CIS(D). UHF-(DLPNO)-IP/EA/STEOM-CCSD. UHF-CVS-IP/STEOM-CCSD   
  Vijay G. Chilkuri      : MRCI spin determinant printing, contributions to CSF-ICE 
  Pauline Colinet        : FMM embedding                                 
  Dipayan Datta          : RHF DLPNO-CCSD density                        
  Achintya Kumar Dutta   : EOM-CC, STEOM-CC                              
  Nicolas Foglia         : Exact transition moments, OPA infrastructure, MCD improvements    
  Dmitry Ganyushin       : Spin-Orbit,Spin-Spin,Magnetic field MRCI      
  Miquel Garcia-Rates    : C-PCM and meta-GGA Hessian, CCSD/C-PCM, Gaussian charge scheme 
  Tiago L. C. Gouveia    : GS-ROHF, GS-ROCIS                             
  Yang Guo               : DLPNO-NEVPT2, F12-NEVPT2, CIM, IAO-localization        
  Andreas Hansen         : Spin unrestricted coupled pair/coupled cluster methods 
  Ingolf Harden          : AUTO-CI MPn and infrastructure                
  Benjamin Helmich-Paris : MC-RPA, TRAH-(SCF,CASSCF), AVAS, COSX integrals, SCF dyn. polar., MC-PDFT, srDFT 
  Lee Huntington         : MR-EOM, pCC                                   
  Robert Izsak           : Overlap fitted RIJCOSX, COSX-SCS-MP3, EOM     
  Riya Kayal             : Wick's Theorem for AUTO-CI, AUTO-CI UHF-CCSDT 
  Emily Kempfer          : AUTO-CI RHF CISDT and CCSDT, approximate NEVPT4
  Christian Kollmar      : KDIIS, OOCD, Brueckner-CCSD(T), CCSD density, CASPT2, CASPT2-K, improved NEVPT2 
  Axel Koslowski         : Symmetry handling                             
  Simone Kossmann        : meta-GGA functionals, TD-DFT gradient, OOMP2, (MP2 Hessian; deprecated post 5.0) 
  Lucas Lang             : DCDCAS, Hyperfine gauge corrections, ICE-SOC+SSC
  Marvin Lechner         : AUTO-CI (C++ implementation), FIC-MRCC        
  Spencer Leger          : CASSCF response                               
  Dagmar Lenk            : GEPOL surface, SMD, ORCA-2-JSON               
  Dimitrios Liakos       : Extrapolation schemes; Compound Job, Property file
  Dimitrios Manganas     : Further ROCIS development; embedding schemes. LFT, Crystal Embedding 
  Dimitrios Pantazis     : SARC Basis sets                               
  Anastasios Papadopoulos: AUTO-CI, single reference methods and gradients 
  Taras Petrenko         : pre 6.0 DFT Hessian and TD-DFT gradient,  ECA, NRVS 
  Petra Pikulova         : Analytic Raman intensities                    
  Peter Pinski           : DLPNO-MP2, DLPNO-MP2 Gradient                 
  Shashank Vittal Rao    : ES-AILFT, MagRelax                            
  Christoph Reimann      : Effective Core Potentials                     
  Marius Retegan         : Local ZFS, SOC                                
  Christoph Riplinger    : Optimizer, TS searches, QM/MM, DLPNO-CCSD(T), (RO)-DLPNO pert. Triples 
  Michael Roemelt        : Original ROCIS implementation, recursive CI coupling coefficients
  Masaaki Saitow         : Open-shell DLPNO-CCSD energy and density      
  Barbara Sandhoefer     : DKH picture change effects                    
  Yorick L. A. Schmerwitz: GMF and freeze-and-release deltaSCF, NEB S-IDPP initial path                    
  Kantharuban Sivalingam : CASSCF convergence/infrastructure, NEVPT2, NEVPT3, NEVPT4(SD), FIC-MRCI and CEPA variants
  Bernardo de Souza      : ESD, SOC TD-DFT                               
  Georgi L. Stoychev     : AutoAux, RI-MP2 NMR, DLPNO-MP2 response, X2C  
  Van Anh Tran           : RI-MP2 g-tensors                              
  Willem Van den Heuvel  : Paramagnetic NMR                              
  Zikuan Wang            : NOTCH, Electric field optimization            
  Frank Wennmohs         : Technical directorship and infrastructure     
  Hang Xu                : AUTO-CI-Response properties                   
                                                                         
[FACCTs GmbH]                                                            
  Markus Bursch, Nicolas Foglia, Miquel Garcia-Rates, Ingolf Harden, Hagen Neugebauer, Anastasios Papadopoulos, 
  Christoph Riplinger, Bernardo de Souza, Georgi L. Stoychev                                                    
                                                                 
  APM, various basis sets, CI-OPT, improved COSX, DLPNO-Multilevel,           
  DOCKER, DRACO, updates on ESD, Fragmentator, GOAT, IRC, LR-CPCM, L-BFGS, MBIS, meta-GGA TD-DFT gradient, ML-optimized integration grids, 
  MM, NACMEs, nearIR, NEB, NEB-TS, NL-DFT gradient (VV10), 2- and 3-layer-ONIOM, interface openCOSMO-RS, QMMM,   
  Crystal-QMMM, RESP, rigid body optimization, SF, symmetry and pop. for TD-DFT, various functionals, SOLVATOR                                   
                                                                         
[Other institutions]                                                     
  V. Asgeirsson          : NEB                                           
  Christoph Bannwarth    : sTDA-DFT, sTD-DFT, PBEh-3c, B97-3c, D3        
  Giovanni Bistoni       : ETS/NOCV, ADLD/ADEX, COVALED                  
  Martin Brehm           : Molecular dynamics                            
  Ronald Cardenas        : ETS/NOCV                                      
  Martina Colucci        : COVALED                                       
  Sebastian Ehlert       : rSCAN, r2SCAN, r2SCAN-3c, D4, dhf basis sets  
  Marvin Friede          : D4 for Fr, Ra, Ac-Lr                          
  Lars Goerigk           : TD-DFT with DH, B97 family of functionals     
  Stefan Grimme          : VdW corrections, initial TS optimization, DFT functionals, gCP, sTDA/sTD-DF 
  Waldemar Hujo          : DFT-NL                                        
  H. Jonsson             : NEB                                           
  Holger Kruse           : gCP                                           
  Marcel Mueller         : wB97X-3c, vDZP basis set                      
  Hagen Neugebauer       : wr2SCAN, Native XTB                           
  Gianluca Regni         : ADLD/ADEX                                     
  Tobias Risthaus        : pre 6.0 range-separated hybrid DFT and stability analysis
  Lukas Wittmann         : regularized MP2, r2SCAN double-hybrids, wr2SCAN        
                                                                         
We gratefully acknowledge several colleagues who have allowed us to      
interface, adapt or use parts of their codes:                            
  Ed Valeev, F. Pavosevic, A. Kumar             : LibInt (2-el integral package), F12 methods 
  Garnet Chan, S. Sharma, J. Yang, R. Olivares  : DMRG                   
  Ulf Ekstrom                                   : XCFun DFT Library      
  Mihaly Kallay                                 : mrcc  (arbitrary order and MRCC methods)
  Frank Weinhold                                : gennbo (NPA and NBO analysis)           
  Simon Mueller                                 : openCOSMO-RS                            
  Christopher J. Cramer and Donald G. Truhlar   : smd solvation model                     
  S Lehtola, MJT Oliveira, MAL Marques          : LibXC Library                           
  Liviu Ungur et al                             : ANISO software                          


 Your calculation uses the libint2 library for the computation of 2-el integrals
 For citations please refer to: http://libint.valeyev.net

 Your ORCA version has been built with support for libXC version: 7.0.0
 For citations please refer to: https://libxc.gitlab.io

 This ORCA versions uses:
   CBLAS   interface :  Fast vector & matrix operations
   LAPACKE interface :  Fast linear algebra routines
   SCALAPACK package :  Parallel linear algebra routines
   Shared memory     :  Shared parallel matrices
   BLAS/LAPACK       :  OpenBLAS 0.3.29  USE64BITINT DYNAMIC_ARCH NO_AFFINITY Zen SINGLE_THREADED
        Core in use  :  Zen
   Copyright (c) 2011-2014, The OpenBLAS Project


  ***********************************
  * Starting time: Sun Mar 29 10:36:40 2026
  * Host name:     33e191bc0687
  * Process ID:    599
  * Working dir.:  /kaggle/working
  ***********************************

NOTE: MaxCore=3000 MB was set to SCF,MP2,MDCI,CIPSI,MRCI,RASCI and CIS
      => If you want to overwrite this, your respective input block should be placed after the MaxCore statement
Your calculation utilizes the atom-pairwise dispersion correction
with the Becke-Johnson damping scheme (D3BJ)


Warning: RI is on but no J-basis has been assigned. Assigning Def2/J (nothing to worry about!)
================================================================================

----- Orbital basis set information -----
Your calculation utilizes the basis: 6-31G(d,p)
   H-He, Li-Ne : W. J. Hehre, R. Ditchfield and J.A. Pople, J. Chem. Phys. 56, 2257 (1972).
                 Note: He and Ne are unpublished basis sets taken from the Gaussian program.
                 Note: Li and B from J. D. Dill and J. A. Pople, J. Chem. Phys. 62, 2921 (1975).
   Na - Ar     : M. M. Francl, W. J. Pietro, W. J. Hehre, J. S. Binkley, M. S. Gordon, 
                 D. J. DeFrees and J. A. Pople, J. Chem. Phys. 77, 3654 (1982).
   K - Zn      : V. A. Rassolov, J. A. Pople, M. A. Ratner, and T. L. Windus, J. Chem. Phys. 109, 1223 (1998).

----- AuxJ basis set information -----
Your calculation utilizes the auxiliary basis: def2/J
   H-Rn: F. Weigend, Phys. Chem. Chem. Phys. 8, 1057 (2006).
   Fr-Lr: K. Eichkorn, F. Weigend, O. Treutler, R. Ahlrichs; Theor. Chem. Acc. 97, 119 (1997).

================================================================================
                                        WARNINGS
                       Please study these warnings very carefully!
================================================================================


================================================================================
                                       INPUT FILE
================================================================================
NAME = /kaggle/working/Gal-2/Gal_InterFrag.inp
|  1> 
|  2> !RKS B3LYP 6-31G(d,p) TightSCF D3BJ # def2-TZVPP
|  3> 
|  4> %pal nprocs 2 end
|  5> %maxcore 3000
|  6> 
|  7> %elprop
|  8>   Polar 1      # polarizability via CP-SCF
|  9> end
| 10> 
| 11> %output
| 12>   PrintLevel Normal
| 13>   Print[ P_OrbEn ] 2
| 14> end
| 15> 
| 16> *xyz 0 1
| 17>   O      0.790435    0.954476   -0.293681
| 18>   O      0.326331   -1.705843   -1.292516
| 19>   O     -2.069786   -1.987110    0.164028
| 20>   O     -2.803749    0.751105    0.459836
| 21>   O     -0.809515    2.580674   -0.562511
| 22>   O      3.490861    0.631567    0.389619
| 23>   C      0.259737   -1.368184    0.093569
| 24>   C     -1.154488   -0.959172    0.524622
| 25>   C      1.212615   -0.217152    0.432877
| 26>   C     -1.551319    0.375571   -0.103682
| 27>   C     -0.479463    1.431348    0.164219
| 28>   C      2.657859   -0.470595    0.038236
| 29>   H      0.552278   -2.267785    0.644054
| 30>   H     -1.141910   -0.823537    1.617366
| 31>   H      1.165705   -0.011574    1.511771
| 32>   H     -1.635852    0.252277   -1.192523
| 33>   H     -0.413018    1.641980    1.242308
| 34>   H      2.714097   -0.682654   -1.037313
| 35>   H      3.029892   -1.345473    0.579282
| 36>   H      0.333951   -0.870901   -1.786476
| 37>   H     -2.953991   -1.642317    0.360185
| 38>   H     -3.111439    1.532512   -0.022403
| 39>   H     -0.303869    3.322606   -0.198315
| 40>   H      3.080137    1.413582   -0.009355
| 41> 
| 42> *
| 43> 
| 44>                          ****END OF INPUT****
================================================================================

                       ****************************
                       * Single Point Calculation *
                       ****************************

---------------------------------
CARTESIAN COORDINATES (ANGSTROEM)
---------------------------------
  O      0.790435    0.954476   -0.293681
  O      0.326331   -1.705843   -1.292516
  O     -2.069786   -1.987110    0.164028
  O     -2.803749    0.751105    0.459836
  O     -0.809515    2.580674   -0.562511
  O      3.490861    0.631567    0.389619
  C      0.259737   -1.368184    0.093569
  C     -1.154488   -0.959172    0.524622
  C      1.212615   -0.217152    0.432877
  C     -1.551319    0.375571   -0.103682
  C     -0.479463    1.431348    0.164219
  C      2.657859   -0.470595    0.038236
  H      0.552278   -2.267785    0.644054
  H     -1.141910   -0.823537    1.617366
  H      1.165705   -0.011574    1.511771
  H     -1.635852    0.252277   -1.192523
  H     -0.413018    1.641980    1.242308
  H      2.714097   -0.682654   -1.037313
  H      3.029892   -1.345473    0.579282
  H      0.333951   -0.870901   -1.786476
  H     -2.953991   -1.642317    0.360185
  H     -3.111439    1.532512   -0.022403
  H     -0.303869    3.322606   -0.198315
  H      3.080137    1.413582   -0.009355

----------------------------
CARTESIAN COORDINATES (A.U.)
----------------------------
  NO LB      ZA    FRAG     MASS         X           Y           Z
   0 O     8.0000    0    15.999    1.493706    1.803698   -0.554977
   1 O     8.0000    0    15.999    0.616676   -3.223576   -2.442501
   2 O     8.0000    0    15.999   -3.911329   -3.755094    0.309968
   3 O     8.0000    0    15.999   -5.298318    1.419383    0.868964
   4 O     8.0000    0    15.999   -1.529762    4.876767   -1.062992
   5 O     8.0000    0    15.999    6.596771    1.193489    0.736273
   6 C     6.0000    0    12.011    0.490832   -2.585493    0.176820
   7 C     6.0000    0    12.011   -2.181666   -1.812572    0.991392
   8 C     6.0000    0    12.011    2.291510   -0.410358    0.818019
   9 C     6.0000    0    12.011   -2.931568    0.709726   -0.195931
  10 C     6.0000    0    12.011   -0.906054    2.704856    0.310329
  11 C     6.0000    0    12.011    5.022626   -0.889296    0.072256
  12 H     1.0000    0     1.008    1.043654   -4.285493    1.217086
  13 H     1.0000    0     1.008   -2.157897   -1.556259    3.056379
  14 H     1.0000    0     1.008    2.202863   -0.021872    2.856833
  15 H     1.0000    0     1.008   -3.091312    0.476734   -2.253542
  16 H     1.0000    0     1.008   -0.780491    3.102893    2.347622
  17 H     1.0000    0     1.008    5.128900   -1.290029   -1.960237
  18 H     1.0000    0     1.008    5.725666   -2.542575    1.094684
  19 H     1.0000    0     1.008    0.631076   -1.645764   -3.375950
  20 H     1.0000    0     1.008   -5.582234   -3.103529    0.680651
  21 H     1.0000    0     1.008   -5.879768    2.896028   -0.042336
  22 H     1.0000    0     1.008   -0.574229    6.278815   -0.374761
  23 H     1.0000    0     1.008    5.820615    2.671283   -0.017678

--------------------------------
INTERNAL COORDINATES (ANGSTROEM)
--------------------------------
 O      0   0   0     0.000000000000     0.00000000     0.00000000
 O      1   0   0     2.879298710068     0.00000000     0.00000000
 O      2   1   0     2.818156884723    92.86417782     0.00000000
 O      3   2   1     2.850267609271   100.17764696    24.99770345
 O      1   2   3     2.297091532047   120.08144812   304.22693546
 O      1   2   3     2.804187884889    97.66365601   132.97015950
 C      2   1   3     1.428173654827    56.79686155   310.70651846
 C      3   2   1     1.422833438419    60.78590298   343.25123729
 C      1   2   3     1.441816441212    58.07581244    85.52329641
 C      4   3   2     1.423783419759    58.60197108   353.12347978
 C      5   1   2     1.399293060756    36.24074874    74.53018012
 C      6   1   2     1.425525664075    57.74035179   349.06872645
 H      7   2   1     1.094484322001   106.34068343   209.91796911
 H      8   3   2     1.101201393409   110.35405166   216.16548226
 H      9   1   2     1.099306656680   109.27506296   211.79800771
 H     10   4   3     1.099055031291   110.73475093    89.54532613
 H     11   5   1     1.100480199445   111.45809379   119.84906557
 H     12   6   1     1.097696398612   111.15831879    91.85189677
 H     12   6   1     1.093869664123   107.32041203   210.01177190
 H      2   1   3     0.970145705224    51.69710164   114.47886231
 H      3   2   1     0.969112100597   147.65637047    56.60579859
 H      4   3   2     0.968413387387   143.64008464    68.90101810
 H      5   1   2     0.968906443552    97.73648956   184.70831491
 H      6   1   2     0.969237802130    53.03746382   140.90145296

---------------------------
INTERNAL COORDINATES (A.U.)
---------------------------
 O      0   0   0     0.000000000000     0.00000000     0.00000000
 O      1   0   0     5.441086019782     0.00000000     0.00000000
 O      2   1   0     5.325544714552    92.86417782     0.00000000
 O      3   2   1     5.386225189908   100.17764696    24.99770345
 O      1   2   3     4.340873900119   120.08144812   304.22693546
 O      1   2   3     5.299147130500    97.66365601   132.97015950
 C      2   1   3     2.698857079304    56.79686155   310.70651846
 C      3   2   1     2.688765532798    60.78590298   343.25123729
 C      1   2   3     2.724638209275    58.07581244    85.52329641
 C      4   3   2     2.690560737362    58.60197108   353.12347978
 C      5   1   2     2.644280665925    36.24074874    74.53018012
 C      6   1   2     2.693853101978    57.74035179   349.06872645
 H      7   2   1     2.068275626453   106.34068343   209.91796911
 H      8   3   2     2.080969051835   110.35405166   216.16548226
 H      9   1   2     2.077388518321   109.27506296   211.79800771
 H     10   4   3     2.076913015248   110.73475093    89.54532613
 H     11   5   1     2.079606192754   111.45809379   119.84906557
 H     12   6   1     2.074345571569   111.15831879    91.85189677
 H     12   6   1     2.067114091397   107.32041203   210.01177190
 H      2   1   3     1.833309692873    51.69710164   114.47886231
 H      3   2   1     1.831356463197   147.65637047    56.60579859
 H      4   3   2     1.830036086584   143.64008464    68.90101810
 H      5   1   2     1.830967827704    97.73648956   184.70831491
 H      6   1   2     1.831594004669    53.03746382   140.90145296

---------------------
BASIS SET INFORMATION
---------------------
There are 3 groups of distinct atoms

 Group   1 Type O   : 10s4p1d contracted to 3s2p1d pattern {631/31/1}
 Group   2 Type C   : 10s4p1d contracted to 3s2p1d pattern {631/31/1}
 Group   3 Type H   : 4s1p contracted to 2s1p pattern {31/1}

Atom   0O    basis set group =>   1
Atom   1O    basis set group =>   1
Atom   2O    basis set group =>   1
Atom   3O    basis set group =>   1
Atom   4O    basis set group =>   1
Atom   5O    basis set group =>   1
Atom   6C    basis set group =>   2
Atom   7C    basis set group =>   2
Atom   8C    basis set group =>   2
Atom   9C    basis set group =>   2
Atom  10C    basis set group =>   2
Atom  11C    basis set group =>   2
Atom  12H    basis set group =>   3
Atom  13H    basis set group =>   3
Atom  14H    basis set group =>   3
Atom  15H    basis set group =>   3
Atom  16H    basis set group =>   3
Atom  17H    basis set group =>   3
Atom  18H    basis set group =>   3
Atom  19H    basis set group =>   3
Atom  20H    basis set group =>   3
Atom  21H    basis set group =>   3
Atom  22H    basis set group =>   3
Atom  23H    basis set group =>   3
---------------------------------
AUXILIARY/J BASIS SET INFORMATION
---------------------------------
There are 3 groups of distinct atoms

 Group   1 Type O   : 12s5p4d2f1g contracted to 6s4p3d1f1g pattern {711111/2111/211/2/1}
 Group   2 Type C   : 12s5p4d2f1g contracted to 6s4p3d1f1g pattern {711111/2111/211/2/1}
 Group   3 Type H   : 5s2p1d contracted to 3s1p1d pattern {311/2/1}

Atom   0O    basis set group =>   1
Atom   1O    basis set group =>   1
Atom   2O    basis set group =>   1
Atom   3O    basis set group =>   1
Atom   4O    basis set group =>   1
Atom   5O    basis set group =>   1
Atom   6C    basis set group =>   2
Atom   7C    basis set group =>   2
Atom   8C    basis set group =>   2
Atom   9C    basis set group =>   2
Atom  10C    basis set group =>   2
Atom  11C    basis set group =>   2
Atom  12H    basis set group =>   3
Atom  13H    basis set group =>   3
Atom  14H    basis set group =>   3
Atom  15H    basis set group =>   3
Atom  16H    basis set group =>   3
Atom  17H    basis set group =>   3
Atom  18H    basis set group =>   3
Atom  19H    basis set group =>   3
Atom  20H    basis set group =>   3
Atom  21H    basis set group =>   3
Atom  22H    basis set group =>   3
Atom  23H    basis set group =>   3


           ************************************************************
           *        Program running with 2 parallel MPI-processes     *
           *              working on a common directory               *
           ************************************************************
------------------------------------------------------------------------------
                             ORCA STARTUP CALCULATIONS
                           -- RI-GTO INTEGRALS CHOSEN --
------------------------------------------------------------------------------
------------------------------------------------------------------------------
                   ___                                                        
                  /   \      - P O W E R E D   B Y -                         
                 /     \                                                     
                 |  |  |   _    _      __       _____    __    __             
                 |  |  |  | |  | |    /  \     |  _  \  |  |  /  |          
                  \  \/   | |  | |   /    \    | | | |  |  | /  /          
                 / \  \   | |__| |  /  /\  \   | |_| |  |  |/  /          
                |  |  |   |  __  | /  /__\  \  |    /   |      \           
                |  |  |   | |  | | |   __   |  |    \   |  |\   \          
                \     /   | |  | | |  |  |  |  | |\  \  |  | \   \       
                 \___/    |_|  |_| |__|  |__|  |_| \__\ |__|  \__/        
                                                                              
                      - O R C A' S   B I G   F R I E N D -                    
                                      &                                       
                       - I N T E G R A L  F E E D E R -                       
                                                                              
 v1 FN, 2020, v2 2021, v3 2022-2024                                           
------------------------------------------------------------------------------


----------------------
SHARK INTEGRAL PACKAGE
----------------------

Number of atoms                             ...     24
Number of basis functions                   ...    228
Number of shells                            ...    108
Maximum angular momentum                    ...      2
Integral batch strategy                     ... SHARK/LIBINT Hybrid
RI-J (if used) integral strategy            ... SPLIT-RIJ (Revised 2003 algorithm where possible)
Printlevel                                  ...      1
Contraction scheme used                     ... SEGMENTED contraction
Prescreening option                         ... SCHWARTZ
   Thresh                                   ... 2.500e-11
   Tcut                                     ... 2.500e-12
   Tpresel                                  ... 2.500e-12 
Coulomb Range Separation                    ... NOT USED
Exchange Range Separation                   ... NOT USED
Multipole approximations                    ... NOT USED
Finite Nucleus Model                        ... NOT USED
CABS basis                                  ... NOT available
Auxiliary Coulomb fitting basis             ... AVAILABLE
   # of basis functions in Aux-J            ...    720
   # of shells in Aux-J                     ...    240
   Maximum angular momentum in Aux-J        ...      4
Auxiliary J/K fitting basis                 ... NOT available
Auxiliary Correlation fitting basis         ... NOT available
Auxiliary 'external' fitting basis          ... NOT available

Checking pre-screening integrals            ... done (  0.0 sec) Dimension = 108
   => SHARK Basis and OBASIS are compatible. Storing Pre-screening
Shell pair information
Shell pair cut-off parameter TPreSel        ...   2.5e-12
Total number of shell pairs                 ...      5886
Shell pairs after pre-screening             ...      5160
Total number of primitive shell pairs       ...     29208
Primitive shell pairs kept                  ...     16327
          la=0 lb=0:   1607 shell pairs
          la=1 lb=0:   1888 shell pairs
          la=1 lb=1:    583 shell pairs
          la=2 lb=0:    629 shell pairs
          la=2 lb=1:    382 shell pairs
          la=2 lb=2:     71 shell pairs

Checking whether 4 symmetric matrices of dimension 228 fit in memory
:Max Core in MB      =   3000.00
 MB in use           =     10.40
 MB left             =   2989.60
 MB needed           =      0.80
 Data fit in memory  = YES
Calculating RI/J V-Matrix + Cholesky decomp.... done (  0.0 sec)
Calculating Nuclear repulsion               ... done (  0.0 sec) ENN=    831.526151235124 Eh

Diagonalization of the overlap matrix:
Smallest eigenvalue                        ... 2.181e-03
Time for diagonalization                   ...    0.005 sec
Threshold for overlap eigenvalues          ... 1.000e-07
Number of eigenvalues below threshold      ... 0
Time for construction of square roots      ...    0.002 sec
Total time needed                          ...    0.008 sec

-------------------
DFT GRID GENERATION
-------------------

General Integration Accuracy     IntAcc      ... 4.388
Radial Grid Type                 RadialGrid  ... OptM3 with GC (2021)
Angular Grid (max. ang.)         AngularGrid ... 4 (Lebedev-302)
Angular grid pruning method      GridPruning ... 4 (adaptive)
Weight generation scheme         WeightScheme... mBecke (2022)
Basis function cutoff            BFCut       ... 1.0000e-11
Integration weight cutoff        WCut        ... 1.0000e-14
Partially contracted basis set               ... off
Rotationally invariant grid construction     ... off
Angular grids for H and He will be reduced by one unit

Total number of grid points                  ...   110322
Total number of batches                      ...     1736
Average number of points per batch           ...       63
Average number of grid points per atom       ...     4597

--------------------
COSX GRID GENERATION
--------------------

GRIDX 1
-------
General Integration Accuracy     IntAcc      ... 3.816
Radial Grid Type                 RadialGrid  ... OptM3 with GC (2021)
Angular Grid (max. ang.)         AngularGrid ... 1 (Lebedev-50)
Angular grid pruning method      GridPruning ... 4 (adaptive)
Weight generation scheme         WeightScheme... mBecke (2022)
Basis function cutoff            BFCut       ... 1.0000e-11
Integration weight cutoff        WCut        ... 1.0000e-14
Partially contracted basis set               ... on
Rotationally invariant grid construction     ... off
Angular grids for H and He will be reduced by one unit

Total number of grid points                  ...    14048
Total number of batches                      ...      125
Average number of points per batch           ...      112
Average number of grid points per atom       ...      585
UseSFitting                                  ... on

GRIDX 2
-------
General Integration Accuracy     IntAcc      ... 4.020
Radial Grid Type                 RadialGrid  ... OptM3 with GC (2021)
Angular Grid (max. ang.)         AngularGrid ... 2 (Lebedev-110)
Angular grid pruning method      GridPruning ... 4 (adaptive)
Weight generation scheme         WeightScheme... mBecke (2022)
Basis function cutoff            BFCut       ... 1.0000e-11
Integration weight cutoff        WCut        ... 1.0000e-14
Partially contracted basis set               ... on
Rotationally invariant grid construction     ... off
Angular grids for H and He will be reduced by one unit

Total number of grid points                  ...    30277
Total number of batches                      ...      250
Average number of points per batch           ...      121
Average number of grid points per atom       ...     1262
UseSFitting                                  ... on

GRIDX 3
-------
General Integration Accuracy     IntAcc      ... 4.338
Radial Grid Type                 RadialGrid  ... OptM3 with GC (2021)
Angular Grid (max. ang.)         AngularGrid ... 3 (Lebedev-194)
Angular grid pruning method      GridPruning ... 4 (adaptive)
Weight generation scheme         WeightScheme... mBecke (2022)
Basis function cutoff            BFCut       ... 1.0000e-11
Integration weight cutoff        WCut        ... 1.0000e-14
Partially contracted basis set               ... on
Rotationally invariant grid construction     ... off
Angular grids for H and He will be reduced by one unit

Total number of grid points                  ...    66227
Total number of batches                      ...      529
Average number of points per batch           ...      125
Average number of grid points per atom       ...     2759
UseSFitting                                  ... on
Grids setup in   1.7 sec
Initializing property integral containers    ... done (  0.0 sec)

SHARK setup successfully completed in   1.9 seconds

Maximum memory used throughout the entire STARTUP-calculation: 37.8 MB


           ************************************************************
           *        Program running with 2 parallel MPI-processes     *
           *              working on a common directory               *
           ************************************************************
-------------------------------------------------------------------------------
                                 ORCA GUESS
                   Start orbitals & Density for SCF / CASSCF
-------------------------------------------------------------------------------

------------
SCF SETTINGS
------------
Hamiltonian:
 Density Functional     Method          .... DFT(GTOs)
 Exchange Functional    Exchange        .... B88
   X-Alpha parameter    XAlpha          ....  0.666667
   Becke's b parameter  XBeta           ....  0.004200
 Correlation Functional Correlation     .... LYP
 LDA part of GGA corr.  LDAOpt          .... VWN-5
 Gradients option       PostSCFGGA      .... off
 Hybrid DFT is turned on
   Fraction HF Exchange ScalHFX         ....  0.200000
   Scaling of DF-GGA-X  ScalDFX         ....  0.720000
   Scaling of DF-GGA-C  ScalDFC         ....  0.810000
   Scaling of DF-LDA-C  ScalLDAC        ....  1.000000
   Perturbative correction              ....  0.000000
   NL short-range parameter             ....  4.800000
 RI-approximation to the Coulomb term is turned on
   Number of AuxJ basis functions       .... 720
   RIJ-COSX (HFX calculated with COS-X)).... on


General Settings:
 Integral files         IntName         .... /kaggle/working/Gal-2/Gal_InterFrag
 Hartree-Fock type      HFTyp           .... RHF
 Total Charge           Charge          ....    0
 Multiplicity           Mult            ....    1
 Number of Electrons    NEL             ....   96
 Basis Dimension        Dim             ....  228
 Nuclear Repulsion      ENuc            ....    831.5261512351 Eh

Convergence Acceleration:
 AO-DIIS                CNVDIIS         .... on
   Start iteration      DIISMaxIt       ....    12
   Startup error        DIISStart       ....  0.200000
   # of expansion vecs  DIISMaxEq       ....     5
   Bias factor          DIISBfac        ....   1.050
   Max. coefficient     DIISMaxC        ....  10.000
 MO-DIIS                CNVKDIIS        .... off
 Trust-Rad. Augm. Hess. CNVTRAH         .... auto
   Auto Start mean grad. ratio tolernc. ....  1.125000
   Auto Start start iteration           ....    50
   Auto Start num. interpolation iter.  ....    10
   Max. Number of Micro iterations      ....    24
   Max. Number of Macro iterations      .... Maxiter - #DIIS iter
   Number of Davidson start vectors     ....     2
   Converg. threshold    (grad. norm)   ....   1.000e-05
   Grad. Scal. Fac. for Micro threshold ....   0.100
   Minimum threshold for Micro iter.    ....   1.000e-02
   NR start threshold (gradient norm)   ....   1.000e-04
   Initial trust radius                 ....   0.400
   Minimum AH scaling param. (alpha)    ....   1.000
   Maximum AH scaling param. (alpha)    .... 1000.000
   Quad. conv. algorithm                .... NR
   White noise on init. David. guess    .... on
   Maximum white noise                  ....   0.010
   Pseudo random numbers                .... off
   Inactive MOs                         .... canonical
   Orbital update algorithm             .... Taylor
   Preconditioner                       .... Diag
   Full preconditioner red. dimension   ....   250
 SOSCF                 CNVSOSCF           .... on
   Start iteration     SOSCFMaxIt         ....   150
   Startup grad/error  SOSCFStart         ....  0.003300
   Hessian update      SOSCFHessUp        .... L-BFGS
   Autom. constraints  SOSCFAutoConstrain .... off
 Level Shifting         CNVShift        .... on
   Level shift para.    LevelShift      ....    0.2500
   Turn off err/grad.   ShiftErr        ....    0.0010
 Zerner damping         CNVZerner       .... off
 Static damping         CNVDamp         .... on
   Fraction old density DampFac         ....    0.7000
   Max. Damping (<1)    DampMax         ....    0.9800
   Min. Damping (>=0)   DampMin         ....    0.0000
   Turn off err/grad.   DampErr         ....    0.1000

SCF Procedure:
 Maximum # iterations   MaxIter         ....   125
 SCF integral mode      SCFMode         .... Direct
   Integral package                     .... SHARK and LIBINT hybrid scheme
 Reset frequency        DirectResetFreq ....    20
 Integral Threshold     Thresh          ....  2.500e-11 Eh
 Primitive CutOff       TCut            ....  2.500e-12 Eh

Convergence Tolerance:
 Convergence Check Mode ConvCheckMode   .... Total+1el-Energy
 Convergence forced     ConvForced      .... 0
 Energy Change          TolE            ....  1.000e-08 Eh
 1-El. energy change                    ....  1.000e-05 Eh
 Orbital Gradient       TolG            ....  1.000e-05
 Orbital Rotation angle TolX            ....  1.000e-05
 DIIS Error             TolErr          ....  5.000e-07

------------------------------
INITIAL GUESS: MODEL POTENTIAL
------------------------------
Loading Hartree-Fock densities                     ... done
Calculating cut-offs                               ... done
Initializing the effective Hamiltonian             ... done
Setting up the integral package (SHARK)            ... done
Starting the Coulomb interaction                   ... done (   0.1 sec)
Making the grid                                    ... done (   0.2 sec)
Mapping shells                                     ... done
Starting the XC term evaluation                    ... done (   0.1 sec)
  promolecular density results
     # of electrons  =     95.996890482
     EX              =    -83.662588380
     EC              =     -3.356836237
     EX+EC           =    -87.019424617
Transforming the Hamiltonian                       ... done (   0.0 sec)
Diagonalizing the Hamiltonian                      ... done (   0.0 sec)
Back transforming the eigenvectors                 ... done (   0.0 sec)
Now organizing SCF variables                       ... done
                      ------------------
                      INITIAL GUESS DONE (   0.5 sec)
                      ------------------
             **** ENERGY FILE WAS UPDATED (/kaggle/working/Gal-2/Gal_InterFrag.en.tmp) ****
Finished Guess after   0.8 sec
Maximum memory used throughout the entire GUESS-calculation: 15.0 MB


           ************************************************************
           *        Program running with 2 parallel MPI-processes     *
           *              working on a common directory               *
           ************************************************************

-------------------------------------------------------------------------------------------
                                      ORCA LEAN-SCF
                              memory conserving SCF solver
-------------------------------------------------------------------------------------------

----------------------------------------D-I-I-S--------------------------------------------
Iteration    Energy (Eh)           Delta-E    RMSDP     MaxDP     DIISErr   Damp  Time(sec)
-------------------------------------------------------------------------------------------
               ***  Starting incremental Fock matrix formation  ***
    1    -686.4474988438815899     0.00e+00  4.32e-03  7.61e-02  2.43e-01  0.700   4.6
    2    -686.6199889211128493    -1.72e-01  2.74e-03  4.20e-02  1.02e-01  0.700   2.3
                               ***Turning on AO-DIIS***
    3    -686.6829911170538026    -6.30e-02  9.88e-04  1.81e-02  2.87e-02  0.700   2.3
    4    -686.7227094884100325    -3.97e-02  1.48e-03  2.63e-02  1.51e-02  0.000   2.2
    5    -686.8115978626223068    -8.89e-02  3.09e-04  6.29e-03  4.66e-03  0.000   2.3
                              *** Initializing SOSCF ***
---------------------------------------S-O-S-C-F--------------------------------------
Iteration    Energy (Eh)           Delta-E    RMSDP     MaxDP     MaxGrad    Time(sec)
--------------------------------------------------------------------------------------
    6    -686.8118788402338168    -2.81e-04  9.25e-05  1.89e-03  7.14e-04     2.1
               *** Restarting incremental Fock matrix formation ***
    7    -686.8119946687398851    -1.16e-04  5.71e-05  1.12e-03  9.86e-05     4.6
    8    -686.8119957073121213    -1.04e-06  1.72e-05  3.26e-04  9.09e-05     3.2
    9    -686.8119965809229370    -8.74e-07  1.01e-05  1.53e-04  2.22e-05     2.8
   10    -686.8119965890997491    -8.18e-09  3.10e-06  6.86e-05  2.97e-05     2.7
                 **** Energy Check signals convergence ****

               *****************************************************
               *                     SUCCESS                       *
               *           SCF CONVERGED AFTER  10 CYCLES          *
               *****************************************************

Recomputing exchange energy using gridx3       ... done (    7.700 sec)
Old exchange energy                            :    -16.985786529 Eh
New exchange energy                            :    -16.985709779 Eh
Exchange energy change after final integration :      0.000076751 Eh
Total energy after final integration           :   -686.811919885 Eh
             **** ENERGY FILE WAS UPDATED (/kaggle/working/Gal-2/Gal_InterFrag.en.tmp) ****

----------------
TOTAL SCF ENERGY
----------------

Total Energy       :       -686.81191988540843 Eh          -18689.10248 eV

Components:
Nuclear Repulsion  :        831.52615123512362 Eh           22626.97691 eV
Electronic Energy  :      -1518.33814787135429 Eh          -41316.08147 eV
One Electron Energy:      -2593.16147369849159 Eh          -70563.51108 eV
Two Electron Energy:       1074.82332582713730 Eh           29247.42961 eV

Virial components:
Potential Energy   :      -1369.62933981277911 Eh          -37269.50908 eV
Kinetic Energy     :        682.81741992737079 Eh           18580.40661 eV
Virial Ratio       :          2.00585002643673

DFT components:
N(Alpha)           :       48.000029199350 electrons
N(Beta)            :       48.000029199350 electrons
N(Total)           :       96.000058398699 electrons
E(X)               :      -67.522637641526 Eh       
E(C)               :       -3.943452506183 Eh       
E(XC)              :      -71.466090147709 Eh       

---------------
SCF CONVERGENCE
---------------

  Last Energy change         ...    8.1768e-09  Tolerance :   1.0000e-08
  Last MAX-Density change    ...    6.8559e-05  Tolerance :   1.0000e-07
  Last RMS-Density change    ...    3.1018e-06  Tolerance :   5.0000e-09
  Last DIIS Error            ...    7.1372e-04  Tolerance :   5.0000e-07
  Last Orbital Gradient      ...    2.9746e-05  Tolerance :   1.0000e-05
  Last Orbital Rotation      ...    1.2286e-05  Tolerance :   1.0000e-05


----------------
ORBITAL ENERGIES
----------------

  NO   OCC          E(Eh)            E(eV) 
   0   2.0000     -19.174138      -521.7548 
   1   2.0000     -19.168658      -521.6057 
   2   2.0000     -19.157970      -521.3149 
   3   2.0000     -19.139248      -520.8054 
   4   2.0000     -19.134676      -520.6810 
   5   2.0000     -19.134392      -520.6733 
   6   2.0000     -10.295329      -280.1501 
   7   2.0000     -10.240858      -278.6679 
   8   2.0000     -10.238811      -278.6122 
   9   2.0000     -10.235558      -278.5237 
  10   2.0000     -10.233907      -278.4788 
  11   2.0000     -10.226223      -278.2697 
  12   2.0000      -1.087046       -29.5800 
  13   2.0000      -1.037686       -28.2369 
  14   2.0000      -1.035246       -28.1705 
  15   2.0000      -1.015399       -27.6304 
  16   2.0000      -1.005158       -27.3517 
  17   2.0000      -1.001527       -27.2529 
  18   2.0000      -0.785287       -21.3687 
  19   2.0000      -0.773382       -21.0448 
  20   2.0000      -0.691654       -18.8209 
  21   2.0000      -0.649370       -17.6703 
  22   2.0000      -0.617676       -16.8078 
  23   2.0000      -0.586716       -15.9653 
  24   2.0000      -0.557902       -15.1813 
  25   2.0000      -0.537825       -14.6350 
  26   2.0000      -0.522144       -14.2083 
  27   2.0000      -0.515760       -14.0345 
  28   2.0000      -0.495866       -13.4932 
  29   2.0000      -0.470683       -12.8079 
  30   2.0000      -0.468045       -12.7361 
  31   2.0000      -0.449988       -12.2448 
  32   2.0000      -0.429035       -11.6746 
  33   2.0000      -0.423475       -11.5233 
  34   2.0000      -0.415078       -11.2948 
  35   2.0000      -0.398218       -10.8361 
  36   2.0000      -0.377473       -10.2716 
  37   2.0000      -0.370791       -10.0897 
  38   2.0000      -0.350189        -9.5291 
  39   2.0000      -0.346961        -9.4413 
  40   2.0000      -0.332037        -9.0352 
  41   2.0000      -0.327454        -8.9105 
  42   2.0000      -0.313370        -8.5272 
  43   2.0000      -0.299870        -8.1599 
  44   2.0000      -0.284635        -7.7453 
  45   2.0000      -0.274011        -7.4562 
  46   2.0000      -0.263102        -7.1594 
  47   2.0000      -0.252417        -6.8686 
  48   0.0000       0.052126         1.4184 
  49   0.0000       0.065101         1.7715 
  50   0.0000       0.082601         2.2477 
  51   0.0000       0.089968         2.4482 
  52   0.0000       0.102400         2.7864 
  53   0.0000       0.110434         3.0051 
  54   0.0000       0.126435         3.4405 
  55   0.0000       0.139697         3.8013 
  56   0.0000       0.147679         4.0185 
  57   0.0000       0.159629         4.3437 
  58   0.0000       0.168914         4.5964 
  59   0.0000       0.173177         4.7124 
  60   0.0000       0.179278         4.8784 
  61   0.0000       0.196447         5.3456 
  62   0.0000       0.206867         5.6291 
  63   0.0000       0.211965         5.7679 
  64   0.0000       0.225282         6.1302 
  65   0.0000       0.247004         6.7213 
  66   0.0000       0.251795         6.8517 
  67   0.0000       0.264550         7.1988 
  68   0.0000       0.284110         7.7310 
  69   0.0000       0.306100         8.3294 
  70   0.0000       0.323487         8.8025 
  71   0.0000       0.341926         9.3043 
  72   0.0000       0.514416        13.9980 
  73   0.0000       0.536359        14.5951 
  74   0.0000       0.550675        14.9846 
  75   0.0000       0.559193        15.2164 
  76   0.0000       0.564149        15.3513 
  77   0.0000       0.569596        15.4995 
  78   0.0000       0.597799        16.2669 
  79   0.0000       0.619519        16.8580 
  80   0.0000       0.620527        16.8854 
  81   0.0000       0.652924        17.7670 
  82   0.0000       0.659510        17.9462 
  83   0.0000       0.665601        18.1119 
  84   0.0000       0.693000        18.8575 
  85   0.0000       0.697130        18.9699 
  86   0.0000       0.709985        19.3197 
  87   0.0000       0.733241        19.9525 
  88   0.0000       0.745528        20.2868 
  89   0.0000       0.762691        20.7539 
  90   0.0000       0.774451        21.0739 
  91   0.0000       0.786626        21.4052 
  92   0.0000       0.796074        21.6623 
  93   0.0000       0.811335        22.0776 
  94   0.0000       0.817938        22.2572 
  95   0.0000       0.832539        22.6545 
  96   0.0000       0.841901        22.9093 
  97   0.0000       0.862115        23.4593 
  98   0.0000       0.881797        23.9949 
  99   0.0000       0.882633        24.0177 
 100   0.0000       0.902895        24.5690 
 101   0.0000       0.920005        25.0346 
 102   0.0000       0.924529        25.1577 
 103   0.0000       0.959585        26.1116 
 104   0.0000       0.970964        26.4213 
 105   0.0000       0.987624        26.8746 
 106   0.0000       1.006516        27.3887 
 107   0.0000       1.021604        27.7993 
 108   0.0000       1.027711        27.9654 
 109   0.0000       1.052921        28.6514 
 110   0.0000       1.065380        28.9905 
 111   0.0000       1.077751        29.3271 
 112   0.0000       1.107736        30.1430 
 113   0.0000       1.122284        30.5389 
 114   0.0000       1.151029        31.3211 
 115   0.0000       1.164275        31.6815 
 116   0.0000       1.186103        32.2755 
 117   0.0000       1.196952        32.5707 
 118   0.0000       1.220244        33.2045 
 119   0.0000       1.268867        34.5276 
 120   0.0000       1.275975        34.7210 
 121   0.0000       1.293552        35.1994 
 122   0.0000       1.310318        35.6556 
 123   0.0000       1.340725        36.4830 
 124   0.0000       1.367272        37.2054 
 125   0.0000       1.407144        38.2903 
 126   0.0000       1.429836        38.9078 
 127   0.0000       1.464297        39.8456 
 128   0.0000       1.473587        40.0983 
 129   0.0000       1.494185        40.6588 
 130   0.0000       1.533569        41.7305 
 131   0.0000       1.537500        41.8375 
 132   0.0000       1.549614        42.1671 
 133   0.0000       1.571238        42.7556 
 134   0.0000       1.592999        43.3477 
 135   0.0000       1.601652        43.5832 
 136   0.0000       1.613229        43.8982 
 137   0.0000       1.624304        44.1996 
 138   0.0000       1.656172        45.0667 
 139   0.0000       1.683847        45.8198 
 140   0.0000       1.698329        46.2139 
 141   0.0000       1.746474        47.5240 
 142   0.0000       1.755605        47.7725 
 143   0.0000       1.766741        48.0755 
 144   0.0000       1.782686        48.5093 
 145   0.0000       1.803538        49.0768 
 146   0.0000       1.810257        49.2596 
 147   0.0000       1.838914        50.0394 
 148   0.0000       1.866305        50.7847 
 149   0.0000       1.890976        51.4561 
 150   0.0000       1.904874        51.8343 
 151   0.0000       1.918264        52.1986 
 152   0.0000       1.941324        52.8261 
 153   0.0000       1.950850        53.0853 
 154   0.0000       1.963365        53.4259 
 155   0.0000       1.993413        54.2435 
 156   0.0000       1.996609        54.3305 
 157   0.0000       2.004201        54.5371 
 158   0.0000       2.027548        55.1724 
 159   0.0000       2.034929        55.3732 
 160   0.0000       2.048661        55.7469 
 161   0.0000       2.063408        56.1482 
 162   0.0000       2.088679        56.8358 
 163   0.0000       2.105313        57.2885 
 164   0.0000       2.123810        57.7918 
 165   0.0000       2.130396        57.9710 
 166   0.0000       2.139099        58.2078 
 167   0.0000       2.166647        58.9575 
 168   0.0000       2.198972        59.8371 
 169   0.0000       2.246635        61.1341 
 170   0.0000       2.251266        61.2601 
 171   0.0000       2.263774        61.6004 
 172   0.0000       2.305812        62.7443 
 173   0.0000       2.326471        63.3065 
 174   0.0000       2.336446        63.5779 
 175   0.0000       2.352865        64.0247 
 176   0.0000       2.383448        64.8569 
 177   0.0000       2.404096        65.4188 
 178   0.0000       2.412882        65.6579 
 179   0.0000       2.440066        66.3976 
 180   0.0000       2.458389        66.8962 
 181   0.0000       2.463405        67.0327 
 182   0.0000       2.490792        67.7779 
 183   0.0000       2.505253        68.1714 
 184   0.0000       2.519446        68.5576 
 185   0.0000       2.557060        69.5811 
 186   0.0000       2.579799        70.1999 
 187   0.0000       2.589035        70.4512 
 188   0.0000       2.617106        71.2151 
 189   0.0000       2.625716        71.4494 
 190   0.0000       2.649504        72.0967 
 191   0.0000       2.653154        72.1960 
 192   0.0000       2.668339        72.6092 
 193   0.0000       2.684249        73.0421 
 194   0.0000       2.703572        73.5679 
 195   0.0000       2.725352        74.1606 
 196   0.0000       2.734098        74.3986 
 197   0.0000       2.749161        74.8085 
 198   0.0000       2.762512        75.1718 
 199   0.0000       2.787780        75.8593 
 200   0.0000       2.793241        76.0080 
 201   0.0000       2.830984        77.0350 
 202   0.0000       2.850094        77.5550 
 203   0.0000       2.853642        77.6516 
 204   0.0000       2.893077        78.7246 
 205   0.0000       2.904528        79.0362 
 206   0.0000       2.917753        79.3961 
 207   0.0000       2.943165        80.0876 
 208   0.0000       2.979192        81.0679 
 209   0.0000       2.994451        81.4831 
 210   0.0000       2.999577        81.6226 
 211   0.0000       3.020958        82.2044 
 212   0.0000       3.058843        83.2354 
 213   0.0000       3.079171        83.7885 
 214   0.0000       3.097267        84.2809 
 215   0.0000       3.157903        85.9309 
 216   0.0000       3.261518        88.7504 
 217   0.0000       3.276732        89.1644 
 218   0.0000       3.346609        91.0659 
 219   0.0000       3.378997        91.9472 
 220   0.0000       3.421603        93.1066 
 221   0.0000       3.454530        94.0025 
 222   0.0000       3.467298        94.3500 
 223   0.0000       3.483828        94.7998 
 224   0.0000       3.507920        95.4554 
 225   0.0000       3.535640        96.2097 
 226   0.0000       3.550440        96.6124 
 227   0.0000       3.567401        97.0739 

                    ********************************
                    * MULLIKEN POPULATION ANALYSIS *
                    ********************************

-----------------------
MULLIKEN ATOMIC CHARGES
-----------------------
   0 O :   -0.528009
   1 O :   -0.535969
   2 O :   -0.543552
   3 O :   -0.559527
   4 O :   -0.534852
   5 O :   -0.547286
   6 C :    0.165690
   7 C :    0.177729
   8 C :    0.096392
   9 C :    0.119316
  10 C :    0.382545
  11 C :    0.078370
  12 H :    0.109481
  13 H :    0.076448
  14 H :    0.090093
  15 H :    0.100059
  16 H :    0.077650
  17 H :    0.096335
  18 H :    0.107109
  19 H :    0.307738
  20 H :    0.315445
  21 H :    0.320236
  22 H :    0.320013
  23 H :    0.308546
Sum of atomic charges:    0.0000000

--------------------------------
MULLIKEN REDUCED ORBITAL CHARGES
--------------------------------
  0 O s       :     3.887368  s :     3.887368
      pz      :     1.672856  p :     4.613661
      px      :     1.452542
      py      :     1.488263
      dz2     :     0.004023  d :     0.026980
      dxz     :     0.005235
      dyz     :     0.006386
      dx2y2   :     0.007249
      dxy     :     0.004086

  1 O s       :     3.846642  s :     3.846642
      pz      :     1.251748  p :     4.666174
      px      :     1.898240
      py      :     1.516186
      dz2     :     0.005296  d :     0.023153
      dxz     :     0.002464
      dyz     :     0.008083
      dx2y2   :     0.005235
      dxy     :     0.002075

  2 O s       :     3.854425  s :     3.854425
      pz      :     1.847000  p :     4.665968
      px      :     1.238048
      py      :     1.580920
      dz2     :     0.003500  d :     0.023159
      dxz     :     0.002564
      dyz     :     0.004202
      dx2y2   :     0.004909
      dxy     :     0.007984

  3 O s       :     3.850940  s :     3.850940
      pz      :     1.706682  p :     4.686047
      px      :     1.446873
      py      :     1.532493
      dz2     :     0.002695  d :     0.022540
      dxz     :     0.005876
      dyz     :     0.005456
      dx2y2   :     0.005621
      dxy     :     0.002892

  4 O s       :     3.847016  s :     3.847016
      pz      :     1.691853  p :     4.665012
      px      :     1.725893
      py      :     1.247265
      dz2     :     0.003565  d :     0.022825
      dxz     :     0.004260
      dyz     :     0.007110
      dx2y2   :     0.002085
      dxy     :     0.005804

  5 O s       :     3.841335  s :     3.841335
      pz      :     1.798294  p :     4.683204
      px      :     1.661295
      py      :     1.223615
      dz2     :     0.002607  d :     0.022747
      dxz     :     0.004266
      dyz     :     0.004798
      dx2y2   :     0.002967
      dxy     :     0.008109

  6 C s       :     3.149566  s :     3.149566
      pz      :     0.731958  p :     2.617948
      px      :     0.931307
      py      :     0.954682
      dz2     :     0.018514  d :     0.066797
      dxz     :     0.014998
      dyz     :     0.015560
      dx2y2   :     0.007859
      dxy     :     0.009866

  7 C s       :     3.131296  s :     3.131296
      pz      :     0.951108  p :     2.623292
      px      :     0.862535
      py      :     0.809649
      dz2     :     0.016754  d :     0.067683
      dxz     :     0.007872
      dyz     :     0.011003
      dx2y2   :     0.015817
      dxy     :     0.016237

  8 C s       :     3.170060  s :     3.170060
      pz      :     0.943264  p :     2.668665
      px      :     0.946321
      py      :     0.779080
      dz2     :     0.016743  d :     0.064882
      dxz     :     0.006874
      dyz     :     0.012288
      dx2y2   :     0.015128
      dxy     :     0.013849

  9 C s       :     3.143429  s :     3.143429
      pz      :     0.974637  p :     2.671075
      px      :     0.748544
      py      :     0.947894
      dz2     :     0.017157  d :     0.066180
      dxz     :     0.011429
      dyz     :     0.007048
      dx2y2   :     0.013966
      dxy     :     0.016580

 10 C s       :     3.047837  s :     3.047837
      pz      :     0.895017  p :     2.474966
      px      :     0.779052
      py      :     0.800898
      dz2     :     0.022114  d :     0.094652
      dxz     :     0.011757
      dyz     :     0.016627
      dx2y2   :     0.020392
      dxy     :     0.023762

 11 C s       :     3.148498  s :     3.148498
      pz      :     1.022268  p :     2.711161
      px      :     0.844035
      py      :     0.844858
      dz2     :     0.014091  d :     0.061971
      dxz     :     0.006619
      dyz     :     0.012099
      dx2y2   :     0.014760
      dxy     :     0.014403

 12 H s       :     0.879592  s :     0.879592
      pz      :     0.002657  p :     0.010927
      px      :     0.002634
      py      :     0.005637

 13 H s       :     0.912635  s :     0.912635
      pz      :     0.007106  p :     0.010916
      px      :     0.001779
      py      :     0.002032

 14 H s       :     0.898986  s :     0.898986
      pz      :     0.007028  p :     0.010920
      px      :     0.002205
      py      :     0.001687

 15 H s       :     0.889044  s :     0.889044
      pz      :     0.007115  p :     0.010897
      px      :     0.001550
      py      :     0.002232

 16 H s       :     0.911956  s :     0.911956
      pz      :     0.007197  p :     0.010394
      px      :     0.001600
      py      :     0.001597

 17 H s       :     0.892614  s :     0.892614
      pz      :     0.006918  p :     0.011051
      px      :     0.002131
      py      :     0.002003

 18 H s       :     0.881997  s :     0.881997
      pz      :     0.003340  p :     0.010894
      px      :     0.002511
      py      :     0.005043

 19 H s       :     0.653206  s :     0.653206
      pz      :     0.010283  p :     0.039057
      px      :     0.010866
      py      :     0.017908

 20 H s       :     0.645650  s :     0.645650
      pz      :     0.010641  p :     0.038905
      px      :     0.018543
      py      :     0.009721

 21 H s       :     0.641099  s :     0.641099
      pz      :     0.011981  p :     0.038665
      px      :     0.009004
      py      :     0.017680

 22 H s       :     0.641291  s :     0.641291
      pz      :     0.010295  p :     0.038696
      px      :     0.012962
      py      :     0.015439

 23 H s       :     0.652648  s :     0.652648
      pz      :     0.011870  p :     0.038806
      px      :     0.011174
      py      :     0.015762


------------------------
MULLIKEN OVERLAP CHARGES
------------------------
B(  0-O ,  4-O ) :  -0.1018 B(  0-O ,  6-C ) :  -0.0881 B(  0-O ,  8-C ) :   0.4212 
B(  0-O ,  9-C ) :  -0.0684 B(  0-O , 10-C ) :   0.4131 B(  0-O , 11-C ) :  -0.0841 
B(  0-O , 14-H ) :  -0.0872 B(  0-O , 16-H ) :  -0.1099 B(  1-O ,  6-C ) :   0.5509 
B(  1-O ,  7-C ) :  -0.0970 B(  1-O ,  8-C ) :  -0.0685 B(  1-O , 12-H ) :  -0.0741 
B(  1-O , 19-H ) :   0.5808 B(  2-O ,  6-C ) :  -0.0801 B(  2-O ,  7-C ) :   0.5374 
B(  2-O ,  9-C ) :  -0.0765 B(  2-O , 13-H ) :  -0.0811 B(  2-O , 20-H ) :   0.5868 
B(  3-O ,  7-C ) :  -0.0839 B(  3-O ,  9-C ) :   0.4780 B(  3-O , 10-C ) :  -0.0741 
B(  3-O , 15-H ) :  -0.0771 B(  3-O , 21-H ) :   0.5900 B(  4-O ,  9-C ) :  -0.0802 
B(  4-O , 10-C ) :   0.5560 B(  4-O , 16-H ) :  -0.0906 B(  4-O , 22-H ) :   0.5832 
B(  5-O ,  8-C ) :  -0.0713 B(  5-O , 11-C ) :   0.5479 B(  5-O , 17-H ) :  -0.0765 
B(  5-O , 18-H ) :  -0.0664 B(  5-O , 23-H ) :   0.5897 B(  6-C ,  7-C ) :   0.5274 
B(  6-C ,  8-C ) :   0.5306 B(  6-C , 11-C ) :  -0.0665 B(  6-C , 12-H ) :   0.7512 
B(  6-C , 13-H ) :  -0.1031 B(  6-C , 14-H ) :  -0.0998 B(  6-C , 19-H ) :  -0.0901 
B(  7-C ,  9-C ) :   0.6009 B(  7-C , 12-H ) :  -0.0955 B(  7-C , 13-H ) :   0.7015 
B(  7-C , 15-H ) :  -0.0829 B(  7-C , 20-H ) :  -0.0759 B(  8-C , 11-C ) :   0.7164 
B(  8-C , 12-H ) :  -0.0764 B(  8-C , 14-H ) :   0.6944 B(  8-C , 17-H ) :  -0.0821 
B(  8-C , 18-H ) :  -0.0658 B(  9-C , 10-C ) :   0.5150 B(  9-C , 13-H ) :  -0.1103 
B(  9-C , 15-H ) :   0.6980 B(  9-C , 16-H ) :  -0.1296 B(  9-C , 21-H ) :  -0.0709 
B( 10-C , 15-H ) :  -0.0903 B( 10-C , 16-H ) :   0.7393 B( 10-C , 22-H ) :  -0.0518 
B( 11-C , 14-H ) :  -0.0729 B( 11-C , 17-H ) :   0.7248 B( 11-C , 18-H ) :   0.7495 
B( 11-C , 23-H ) :  -0.0883 B( 17-H , 18-H ) :  -0.0843 


                     *******************************
                     * LOEWDIN POPULATION ANALYSIS *
                     *******************************

----------------------
LOEWDIN ATOMIC CHARGES
----------------------
   0 O :   -0.245254
   1 O :   -0.244577
   2 O :   -0.247160
   3 O :   -0.254998
   4 O :   -0.226946
   5 O :   -0.266819
   6 C :    0.035641
   7 C :    0.026670
   8 C :    0.017614
   9 C :    0.009263
  10 C :    0.112648
  11 C :    0.004183
  12 H :    0.078915
  13 H :    0.055540
  14 H :    0.060212
  15 H :    0.064544
  16 H :    0.044402
  17 H :    0.059663
  18 H :    0.074882
  19 H :    0.158199
  20 H :    0.169434
  21 H :    0.173940
  22 H :    0.177964
  23 H :    0.162042

-------------------------------
LOEWDIN REDUCED ORBITAL CHARGES
-------------------------------
  0 O s       :     3.510526  s :     3.510526
      pz      :     1.704673  p :     4.674220
      px      :     1.462395
      py      :     1.507152
      dz2     :     0.008167  d :     0.060509
      dxz     :     0.010442
      dyz     :     0.012633
      dx2y2   :     0.016888
      dxy     :     0.012379

  1 O s       :     3.500993  s :     3.500993
      pz      :     1.294327  p :     4.698564
      px      :     1.868935
      py      :     1.535302
      dz2     :     0.013092  d :     0.045020
      dxz     :     0.005968
      dyz     :     0.017541
      dx2y2   :     0.006957
      dxy     :     0.001462

  2 O s       :     3.499484  s :     3.499484
      pz      :     1.840299  p :     4.702594
      px      :     1.264483
      py      :     1.597811
      dz2     :     0.006031  d :     0.045081
      dxz     :     0.005105
      dyz     :     0.005940
      dx2y2   :     0.011609
      dxy     :     0.016396

  3 O s       :     3.497110  s :     3.497110
      pz      :     1.719795  p :     4.712939
      px      :     1.461583
      py      :     1.531561
      dz2     :     0.004586  d :     0.044949
      dxz     :     0.011040
      dyz     :     0.008799
      dx2y2   :     0.012277
      dxy     :     0.008247

  4 O s       :     3.490398  s :     3.490398
      pz      :     1.707250  p :     4.690884
      px      :     1.713355
      py      :     1.270279
      dz2     :     0.006232  d :     0.045664
      dxz     :     0.005196
      dyz     :     0.015020
      dx2y2   :     0.006665
      dxy     :     0.012551

  5 O s       :     3.504065  s :     3.504065
      pz      :     1.794852  p :     4.718302
      px      :     1.661427
      py      :     1.262023
      dz2     :     0.004322  d :     0.044453
      dxz     :     0.005275
      dyz     :     0.010168
      dx2y2   :     0.007732
      dxy     :     0.016955

  6 C s       :     2.879148  s :     2.879148
      pz      :     0.861059  p :     2.933788
      px      :     1.024930
      py      :     1.047799
      dz2     :     0.041904  d :     0.151423
      dxz     :     0.033991
      dyz     :     0.033550
      dx2y2   :     0.018103
      dxy     :     0.023874

  7 C s       :     2.878180  s :     2.878180
      pz      :     1.047218  p :     2.941569
      px      :     0.960252
      py      :     0.934099
      dz2     :     0.035701  d :     0.153581
      dxz     :     0.018064
      dyz     :     0.025460
      dx2y2   :     0.037209
      dxy     :     0.037148

  8 C s       :     2.890579  s :     2.890579
      pz      :     1.014773  p :     2.943461
      px      :     1.030779
      py      :     0.897909
      dz2     :     0.037213  d :     0.148346
      dxz     :     0.014422
      dyz     :     0.028253
      dx2y2   :     0.035642
      dxy     :     0.032817

  9 C s       :     2.885956  s :     2.885956
      pz      :     1.048785  p :     2.952798
      px      :     0.878297
      py      :     1.025716
      dz2     :     0.036683  d :     0.151983
      dxz     :     0.026452
      dyz     :     0.015580
      dx2y2   :     0.032961
      dxy     :     0.040307

 10 C s       :     2.870514  s :     2.870514
      pz      :     1.002858  p :     2.801434
      px      :     0.893477
      py      :     0.905099
      dz2     :     0.049898  d :     0.215404
      dxz     :     0.024870
      dyz     :     0.037665
      dx2y2   :     0.044566
      dxy     :     0.058405

 11 C s       :     2.888993  s :     2.888993
      pz      :     1.080449  p :     2.971703
      px      :     0.959372
      py      :     0.931882
      dz2     :     0.029462  d :     0.135122
      dxz     :     0.014327
      dyz     :     0.025583
      dx2y2   :     0.034151
      dxy     :     0.031598

 12 H s       :     0.882554  s :     0.882554
      pz      :     0.009175  p :     0.038531
      px      :     0.008228
      py      :     0.021127

 13 H s       :     0.905240  s :     0.905240
      pz      :     0.026623  p :     0.039220
      px      :     0.006589
      py      :     0.006007

 14 H s       :     0.899847  s :     0.899847
      pz      :     0.026645  p :     0.039940
      px      :     0.006983
      py      :     0.006313

 15 H s       :     0.895220  s :     0.895220
      pz      :     0.027411  p :     0.040236
      px      :     0.005415
      py      :     0.007410

 16 H s       :     0.916170  s :     0.916170
      pz      :     0.027938  p :     0.039428
      px      :     0.005008
      py      :     0.006483

 17 H s       :     0.900865  s :     0.900865
      pz      :     0.026788  p :     0.039473
      px      :     0.005927
      py      :     0.006758

 18 H s       :     0.887523  s :     0.887523
      pz      :     0.011319  p :     0.037595
      px      :     0.008110
      py      :     0.018166

 19 H s       :     0.722277  s :     0.722277
      pz      :     0.029855  p :     0.119523
      px      :     0.031352
      py      :     0.058316

 20 H s       :     0.711986  s :     0.711986
      pz      :     0.031734  p :     0.118580
      px      :     0.057040
      py      :     0.029806

 21 H s       :     0.708263  s :     0.708263
      pz      :     0.037609  p :     0.117797
      px      :     0.025849
      py      :     0.054340

 22 H s       :     0.705436  s :     0.705436
      pz      :     0.031656  p :     0.116600
      px      :     0.039613
      py      :     0.045331

 23 H s       :     0.719675  s :     0.719675
      pz      :     0.036385  p :     0.118284
      px      :     0.034086
      py      :     0.047812


---------------------------------
LOEWDIN BOND ORDERS (THRESH 0.050000)
---------------------------------
B(  0-O ,  4-O ) :   0.0756 B(  0-O ,  6-C ) :   0.0571 B(  0-O ,  8-C ) :   1.0976 
B(  0-O ,  9-C ) :   0.0641 B(  0-O , 10-C ) :   1.1274 B(  0-O , 11-C ) :   0.0510 
B(  1-O ,  6-C ) :   1.1872 B(  1-O ,  7-C ) :   0.0638 B(  1-O ,  8-C ) :   0.0605 
B(  1-O , 19-H ) :   1.0237 B(  2-O ,  6-C ) :   0.0514 B(  2-O ,  7-C ) :   1.1897 
B(  2-O ,  9-C ) :   0.0696 B(  2-O , 20-H ) :   1.0202 B(  3-O ,  7-C ) :   0.0551 
B(  3-O ,  9-C ) :   1.1772 B(  3-O , 10-C ) :   0.0724 B(  3-O , 21-H ) :   1.0215 
B(  4-O ,  9-C ) :   0.0583 B(  4-O , 10-C ) :   1.2418 B(  4-O , 22-H ) :   1.0185 
B(  5-O ,  8-C ) :   0.0720 B(  5-O , 11-C ) :   1.1993 B(  5-O , 23-H ) :   1.0275 
B(  6-C ,  7-C ) :   0.9967 B(  6-C ,  8-C ) :   1.0023 B(  6-C , 12-H ) :   0.9021 
B(  7-C ,  8-C ) :   0.0541 B(  7-C ,  9-C ) :   0.9993 B(  7-C , 13-H ) :   0.8965 
B(  8-C , 10-C ) :   0.0582 B(  8-C , 11-C ) :   1.0352 B(  8-C , 14-H ) :   0.8969 
B(  9-C , 10-C ) :   0.9902 B(  9-C , 15-H ) :   0.8985 B( 10-C , 16-H ) :   0.9011 
B( 11-C , 17-H ) :   0.9262 B( 11-C , 18-H ) :   0.9286 

------------------------------------------
LOEWDIN REDUCED ORBITAL POPULATIONS PER MO
-------------------------------------------
THRESHOLD FOR PRINTING IS 0.1%%
                      0         1         2         3         4         5   
                 -19.17414 -19.16866 -19.15797 -19.13925 -19.13468 -19.13439
                   2.00000   2.00000   2.00000   2.00000   2.00000   2.00000
                  --------  --------  --------  --------  --------  --------
 0 O  s               0.0      99.9       0.0       0.0       0.0       0.0
 1 O  s               0.0       0.0       0.0      99.9       0.0       0.0
 2 O  s               0.0       0.0       0.0       0.0      99.9       0.0
 3 O  s               0.0       0.0      99.9       0.0       0.0       0.0
 4 O  s              99.9       0.0       0.0       0.0       0.0       0.0
 5 O  s               0.0       0.0       0.0       0.0       0.0      99.9

                      6         7         8         9        10        11   
                 -10.29533 -10.24086 -10.23881 -10.23556 -10.23391 -10.22622
                   2.00000   2.00000   2.00000   2.00000   2.00000   2.00000
                  --------  --------  --------  --------  --------  --------
 0 O  px              0.1       0.0       0.0       0.0       0.0       0.0
 1 O  pz              0.0       0.0       0.0       0.1       0.0       0.0
 3 O  px              0.0       0.0       0.1       0.0       0.0       0.0
 4 O  py              0.1       0.0       0.0       0.0       0.0       0.0
 6 C  s               0.0       0.0       0.0      99.2       0.2       0.0
 6 C  px              0.0       0.1       0.0       0.0       0.1       0.0
 7 C  s               0.0       0.0       0.0       0.2      99.2       0.0
 7 C  px              0.0       0.0       0.0       0.1       0.0       0.0
 7 C  py              0.0       0.0       0.1       0.0       0.0       0.0
 8 C  s               0.0      99.4       0.0       0.0       0.0       0.0
 8 C  px              0.0       0.0       0.0       0.1       0.0       0.1
 9 C  s               0.0       0.0      99.4       0.0       0.0       0.0
 9 C  py              0.1       0.0       0.0       0.0       0.1       0.0
10 C  s              99.4       0.0       0.0       0.0       0.0       0.0
11 C  s               0.0       0.0       0.0       0.0       0.0      99.5
11 C  px              0.0       0.1       0.0       0.0       0.0       0.0

                     12        13        14        15        16        17   
                  -1.08705  -1.03769  -1.03525  -1.01540  -1.00516  -1.00153
                   2.00000   2.00000   2.00000   2.00000   2.00000   2.00000
                  --------  --------  --------  --------  --------  --------
 0 O  s              25.9       5.8       9.3       4.0       7.5       4.4
 0 O  pz              0.6       0.1       0.2       0.1       0.1       0.1
 0 O  px              0.9       0.0       0.1       0.0       0.1       0.0
 0 O  py              0.0       0.1       0.7       0.1       0.1       0.0
 1 O  s               0.7       0.0      14.0      19.9       0.0      23.3
 1 O  pz              0.0       0.0       0.3       0.3       0.0       0.2
 1 O  py              0.0       0.0       0.5       0.6       0.0       0.7
 2 O  s               0.2       7.4       4.9       9.2       9.6      26.7
 2 O  pz              0.0       0.1       0.0       0.0       0.1       0.2
 2 O  py              0.0       0.4       0.2       0.3       0.3       0.9
 3 O  s               1.9      42.8       0.2       8.6       2.1       3.2
 3 O  pz              0.1       0.9       0.0       0.2       0.0       0.1
 3 O  px              0.1       0.7       0.0       0.1       0.0       0.0
 3 O  py              0.0       0.1       0.0       0.1       0.0       0.1
 4 O  s              24.7       0.0      23.6       5.1       4.9       1.1
 4 O  pz              0.8       0.0       0.5       0.1       0.1       0.0
 4 O  px              0.5       0.0       0.3       0.1       0.0       0.0
 4 O  py              0.5       0.0       0.0       0.0       0.0       0.0
 5 O  s               0.3       1.0       3.4      13.0      37.7       3.4
 5 O  pz              0.0       0.0       0.0       0.2       0.4       0.0
 5 O  px              0.0       0.0       0.2       0.4       1.1       0.1
 6 C  s               0.7       0.0       4.8       3.3       0.0       1.8
 6 C  pz              0.0       0.0       1.6       2.7       0.0       4.0
 6 C  px              0.0       0.5       0.0       0.3       0.1       0.5
 6 C  py              0.4       0.0       0.1       0.3       0.1       0.3
 6 C  dz2             0.0       0.0       0.1       0.3       0.0       0.4
 7 C  s               0.5       2.8       2.1       1.8       1.1       2.6
 7 C  pz              0.1       0.2       0.3       0.3       0.0       0.0
 7 C  px              0.0       1.5       0.0       0.1       0.7       3.0
 7 C  py              0.1       0.0       0.4       1.7       1.1       1.8
 7 C  dxy             0.0       0.0       0.0       0.1       0.1       0.3
 8 C  s               3.6       0.9       3.9       0.5       0.2       0.0
 8 C  pz              0.9       0.2       0.8       0.0       0.2       0.0
 8 C  px              0.5       0.0       0.2       0.5       1.4       0.1
 8 C  py              1.9       0.6       0.3       1.4       0.6       1.1
 8 C  dyz             0.1       0.0       0.0       0.0       0.1       0.0
 9 C  s               2.3       7.5       0.2       0.5       0.1       0.0
 9 C  pz              0.1       1.1       0.0       0.1       0.0       0.0
 9 C  px              0.3       5.9       0.0       1.0       0.1       0.5
 9 C  py              0.8       0.1       0.7       0.6       0.3       0.6
 9 C  dxz             0.0       0.2       0.0       0.0       0.0       0.0
 9 C  dx2y2           0.0       0.2       0.0       0.1       0.0       0.0
 9 C  dxy             0.0       0.2       0.0       0.0       0.0       0.0
10 C  s              14.7       0.0       0.5       0.0       0.1       0.1
10 C  pz              2.2       0.0       0.4       0.1       0.0       0.0
10 C  px              1.0       2.8       2.0       0.4       1.1       1.0
10 C  py              0.5       0.0       5.8       1.4       1.7       0.5
10 C  dz2             0.1       0.0       0.0       0.0       0.0       0.0
10 C  dyz             0.1       0.0       0.3       0.1       0.1       0.0
10 C  dx2y2           0.0       0.0       0.3       0.1       0.1       0.0
10 C  dxy             0.2       0.1       0.0       0.0       0.0       0.0
11 C  s               0.4       0.4       1.5       2.3       5.0       0.5
11 C  pz              0.0       0.0       0.0       0.1       0.3       0.0
11 C  px              0.3       0.0       0.1       0.4       2.4       0.2
11 C  py              0.2       0.2       0.5       1.7       3.2       0.2
11 C  dxy             0.0       0.0       0.0       0.1       0.4       0.0
12 H  s               0.1       0.0       0.6       0.4       0.0       0.2
13 H  s               0.1       0.4       0.3       0.2       0.1       0.3
14 H  s               0.5       0.1       0.5       0.1       0.0       0.0
15 H  s               0.4       0.8       0.0       0.0       0.0       0.0
16 H  s               1.7       0.0       0.0       0.0       0.0       0.0
17 H  s               0.1       0.0       0.2       0.2       0.5       0.1
18 H  s               0.0       0.0       0.2       0.2       0.6       0.1
19 H  s               0.3       0.0       3.3       4.1       0.0       4.9
19 H  pz              0.0       0.0       0.2       0.2       0.0       0.3
19 H  py              0.0       0.0       0.4       0.5       0.0       0.6
20 H  s               0.1       2.0       1.0       1.7       2.0       5.7
20 H  px              0.0       0.2       0.2       0.3       0.3       0.9
21 H  s               0.5       9.0       0.0       1.8       0.4       0.8
21 H  pz              0.0       0.3       0.0       0.1       0.0       0.0
21 H  px              0.0       0.2       0.0       0.0       0.0       0.0
21 H  py              0.0       1.1       0.0       0.2       0.1       0.1
22 H  s               5.1       0.0       5.0       1.1       1.1       0.2
22 H  px              0.2       0.0       0.2       0.1       0.1       0.0
22 H  py              0.6       0.0       0.6       0.1       0.1       0.0
23 H  s               0.2       0.3       0.9       3.0       7.8       0.7
23 H  pz              0.0       0.0       0.0       0.1       0.2       0.0
23 H  px              0.0       0.0       0.0       0.1       0.2       0.0
[...]
  8 C      5.9036     6.0000     0.0964     3.7991     3.7991     0.0000
  9 C      5.8807     6.0000     0.1193     3.7928     3.7928     0.0000
 10 C      5.6175     6.0000     0.3825     3.7996     3.7996    -0.0000
 11 C      5.9216     6.0000     0.0784     3.8314     3.8314     0.0000
 12 H      0.8905     1.0000     0.1095     0.9545     0.9545     0.0000
 13 H      0.9236     1.0000     0.0764     0.9530     0.9530     0.0000
 14 H      0.9099     1.0000     0.0901     0.9580     0.9580     0.0000
 15 H      0.8999     1.0000     0.1001     0.9630     0.9630     0.0000
 16 H      0.9223     1.0000     0.0777     0.9549     0.9549    -0.0000
 17 H      0.9037     1.0000     0.0963     0.9620     0.9620    -0.0000
 18 H      0.8929     1.0000     0.1071     0.9533     0.9533     0.0000
 19 H      0.6923     1.0000     0.3077     0.9165     0.9165     0.0000
 20 H      0.6846     1.0000     0.3154     0.9078     0.9078     0.0000
 21 H      0.6798     1.0000     0.3202     0.9019     0.9019    -0.0000
 22 H      0.6800     1.0000     0.3200     0.8964     0.8964    -0.0000
 23 H      0.6915     1.0000     0.3085     0.9122     0.9122    -0.0000

  Mayer bond orders larger than 0.100000
B(  0-O ,  8-C ) :   0.8696 B(  0-O , 10-C ) :   0.8840 B(  1-O ,  6-C ) :   0.9613 
B(  1-O , 19-H ) :   0.8610 B(  2-O ,  7-C ) :   0.9626 B(  2-O , 20-H ) :   0.8650 
B(  3-O ,  9-C ) :   0.9313 B(  3-O , 21-H ) :   0.8671 B(  4-O , 10-C ) :   1.0034 
B(  4-O , 22-H ) :   0.8734 B(  5-O , 11-C ) :   0.9604 B(  5-O , 23-H ) :   0.8694 
B(  6-C ,  7-C ) :   0.9367 B(  6-C ,  8-C ) :   0.9315 B(  6-C , 12-H ) :   0.9331 
B(  7-C ,  9-C ) :   0.9549 B(  7-C , 13-H ) :   0.9194 B(  8-C , 11-C ) :   0.9874 
B(  8-C , 14-H ) :   0.9185 B(  9-C , 10-C ) :   0.9209 B(  9-C , 15-H ) :   0.9206 
B( 10-C , 16-H ) :   0.9232 B( 11-C , 17-H ) :   0.9303 B( 11-C , 18-H ) :   0.9463 


-------
TIMINGS
-------

Total SCF time: 0 days 0 hours 0 min 39 sec 

Total time                  ....      39.645 sec
Sum of individual times     ....      37.390 sec  ( 94.3%)

SCF preparation             ....       0.329 sec  (  0.8%)
Fock matrix formation       ....      36.614 sec  ( 92.4%)
  Startup                   ....       0.005 sec  (  0.0% of F)
  Split-RI-J                ....       3.473 sec  (  9.5% of F)
  Chain of spheres X        ....      30.325 sec  ( 82.8% of F)
  XC integration            ....       4.963 sec  ( 13.6% of F)
    XC Preparation          ....       0.000 sec  (  0.0% of XC)
    Basis function eval.    ....       1.784 sec  ( 35.9% of XC)
    Density eval.           ....       1.274 sec  ( 25.7% of XC)
    XC-Functional eval.     ....       0.216 sec  (  4.4% of XC)
    XC-Potential eval.      ....       1.381 sec  ( 27.8% of XC)
Diagonalization             ....       0.000 sec  (  0.0%)
Density matrix formation    ....       0.027 sec  (  0.1%)
Total Energy calculation    ....       0.012 sec  (  0.0%)
Population analysis         ....       0.186 sec  (  0.5%)
Orbital Transformation      ....       0.027 sec  (  0.1%)
Orbital Orthonormalization  ....       0.000 sec  (  0.0%)
DIIS solution               ....       0.133 sec  (  0.3%)
  MO trafo                  ....       0.000 sec  (  0.0 % of DIIS)
  Orb grad                  ....       0.000 sec  (  0.0 % of DIIS)
  Energy W gradient         ....       0.000 sec  (  0.0 % of DIIS)
  DIIS error                ....       0.028 sec  ( 21.4 % of DIIS)
  DIIS work                 ....       0.087 sec  ( 65.3 % of DIIS)
  Form Q                    ....       0.000 sec  (  0.0 % of DIIS)
  Form QpQm                 ....       0.000 sec  (  0.0 % of DIIS)
  Exp/Cayley                ....       0.000 sec  (  0.0 % of DIIS)
  Orb update                ....       0.000 sec  (  0.0 % of DIIS)
  Wake-sleep                ....       0.004 sec  (  2.8 % of DIIS)
SOSCF solution              ....       0.061 sec  (  0.2%)
  MO trafo                  ....       0.028 sec  ( 46.1 % of SOSCF)
  Orb grad                  ....       0.002 sec  (  3.3 % of SOSCF)
  Rot update                ....       0.006 sec  (  9.2 % of SOSCF)
  Step                      ....       0.022 sec  ( 35.5 % of SOSCF)
Finished LeanSCF after  39.7 sec

Maximum memory used throughout the entire LEANSCF-calculation: 27.3 MB


-------------------------------------------------------------------------------
                          DFT DISPERSION CORRECTION                            
                                                                               
                              DFTD3 V3.1  Rev 1                                
                          USING Becke-Johnson damping                          
-------------------------------------------------------------------------------
The B3LYP functional is recognized
Active option DFTDOPT                   ...         4   

molecular C6(AA) [au] = 4309.389387 


            DFT-D V3
 parameters
 s6 scaling factor         :     1.0000 
 a1 scaling factor         :     0.3981 
 s8 scaling factor         :     1.9889 
 a2 scaling factor         :     4.4211 
 ad hoc parameters k1-k3   :    16.0000     1.3333    -4.0000 

 Edisp/kcal,au: -25.031839666309  -0.039890771424 
 E6   /kcal   : -12.289757700 
 E8   /kcal   : -12.742081967 
 % E8         :  50.903497851 

-------------------------   ----------------
Dispersion correction           -0.039890771
-------------------------   ----------------


-------------------------   --------------------
FINAL SINGLE POINT ENERGY      -686.851810656832
-------------------------   --------------------



           ************************************************************
           *        Program running with 2 parallel MPI-processes     *
           *              working on a common directory               *
           ************************************************************
------------------------------------------------------------------------------
                            ORCA SCF RESPONSE CALCULATION
------------------------------------------------------------------------------

GBWName                                 ... /kaggle/working/Gal-2/Gal_InterFrag.gbw
Number of atoms                         ...     24
Number of basis functions               ...    228
Max core memory                         ...   3000 MB

Electric field perturbation             ... YES
Quadrupolar field perturbation          ...  NO
Magnetic field perturbation (no GIAO)   ...  NO
Magnetic field perturbation (with GIAO) ...  NO
Linear momentum (velocity) perturbation ...  NO
Spin-orbit coupling perturbation        ...  NO
Choice of electric origin               ... Center of mass
Position of electric origin             ...    -0.047512     0.058825    -0.027582
Choice of magnetic origin               ... GIAO
Position of magnetic origin             ...     0.000000     0.000000     0.000000
Nuclear geometric perturbations         ...  NO (  72 perturbations)
Nucleus-orbit perturbations             ...  NO (   0 perturbations)
Spin-dipole/Fermi contact perturbations ...  NO (   0 perturbations)

Total number of real perturbations      ...      3
Total number of imaginary perturbations ...      0
Total number of triplet perturbations   ...      0
Total number of SOC perturbations       ...      0

Using XC Grid                  ... (/kaggle/working/Gal-2/Gal_InterFrag.grid_cpscf.tmp) 
Recalculating density on grid  ... (/kaggle/working/Gal-2/Gal_InterFrag.grho_cpscf0.tmp) done
Calculating the xc-kernel      ... (/kaggle/working/Gal-2/Gal_InterFrag.fxc_cpscf0.tmp) done

                                **********************
                                * REAL PERTURBATIONS *
                                **********************



-------------------
SHARK CP-SCF DRIVER
-------------------

Dimension of the orbital basis          ...    228
Dimension of the CPSCF-problem          ...   8640
Number of operators                     ...      1
Max. number of iterations               ...    128
Convergence Tolerance                   ... 1.0e-04
Number of perturbations                 ...      3
Perturbation type                       ... REAL

----------------------------
POPLE LINEAR EQUATION SOLVER
----------------------------

  ITERATION   0:   ||err||_max =   7.5192e+00 (   2.1 sec   0/  3 done)
  ITERATION   1:   ||err||_max =   6.7837e-01 (   1.9 sec   0/  3 done)
  ITERATION   2:   ||err||_max =   2.0167e-01 (   1.9 sec   0/  3 done)
  ITERATION   3:   ||err||_max =   5.3040e-02 (   1.9 sec   0/  3 done)
  ITERATION   4:   ||err||_max =   1.6804e-02 (   1.9 sec   0/  3 done)
  ITERATION   5:   ||err||_max =   3.9963e-03 (   2.0 sec   0/  3 done)
  ITERATION   6:   ||err||_max =   1.0210e-03 (   2.0 sec   0/  3 done)
  ITERATION   7:   ||err||_max =   3.4821e-04 (   2.0 sec   0/  3 done)
  ITERATION   8:   ||err||_max =   9.0507e-05 (   1.9 sec   3/  3 done)

CP-SCF equations solved in  17.6 sec
Response densities calculated in   0.0 sec

Maximum memory used throughout the entire SCFRESP-calculation: 30.0 MB


           ************************************************************
           *        Program running with 2 parallel MPI-processes     *
           *              working on a common directory               *
           ************************************************************

------------------------------------------------------------------------------
                              ORCA PROPERTY CALCULATIONS
------------------------------------------------------------------------------

GBWName                                 ... /kaggle/working/Gal-2/Gal_InterFrag.gbw
Number of atoms                         ...     24
Number of basis functions               ...    228
Max core memory                         ...   3000 MB

Electric properties:
Dipole moment                           ... YES
Quadrupole moment                       ...  NO
Static polarizability (Dipole/Dipole)   ... YES
Static polarizability (Dipole/Quad.)    ...  NO
Static polarizability (Quad./Quad.)     ...  NO
Static polarizability (Velocity)        ...  NO
Static hyperpolarizability              ...  NO

Atomic electric properties:
Dipole moment                           ...  NO
Quadrupole moment                       ...  NO
Static polarizability                   ...  NO

Choice of electric origin               ... Center of mass
Position of electric origin             ...    -0.047512     0.058825    -0.027582

General magnetic properties:
Magnetizability                         ...  NO

EPR properties:
g-Tensor (aka g-matrix)                 ...  NO
Zero-Field splitting spin-orbit         ...  NO
Zero-field splitting spin-spin          ...  NO
Hyperfine couplings                     ...  NO (   0 nuclei)
Quadrupole couplings                    ...  NO (   0 nuclei)
Contact density                         ...  NO (   0 nuclei)

NMR properties:
Chemical shifts                         ...  NO (   0 nuclei)
Spin-rotation constants                 ...  NO (   0 nuclei)
Spin-spin couplings                     ...  NO (   0 nuclei,    0 pairs)

Choice of magnetic origin               ... GIAO
Position of magnetic origin             ...     0.000000     0.000000     0.000000

Properties with geometric perturbations:
SCF Hessian                             ...  NO
IR spectrum                             ...  NO
VCD spectrum                            ...  NO
X-ray spectroscopy properties:
SCF XES/XAS/RIXS spectra                ...  NO

SCF SOC stabilization energy            ...  NO
Diagonal Born-Oppenheimer correction    ...  NO

-------------
DIPOLE MOMENT
-------------

Method             : SCF
Type of density    : Electron Density
Multiplicity       :   1
Irrep              :   0
Energy             :  -686.8119198854084289 Eh
Basis              : AO
                                X                 Y                 Z
Electronic contribution:     -1.994483748       1.242807380      -1.366339381
Nuclear contribution   :      1.504001119       0.151547735       1.751774711
                        -----------------------------------------
Total Dipole Moment    :     -0.490482629       1.394355115       0.385435330
                        -----------------------------------------
Magnitude (a.u.)       :      1.527533891
Magnitude (Debye)      :      3.882682590



--------------------
Rotational spectrum 
--------------------
 
Rotational constants in cm-1:             0.042420             0.025083             0.017699 
Rotational constants in MHz :          1271.717538           751.983416           530.609085 

Dipole components along the rotational axes: 
x,y,z [a.u.] :     0.451394     1.415092     0.356535 
x,y,z [Debye]:     1.147351     3.596879     0.906240 

 

Dipole moment calculation done in   0.0 sec 


---------------------------------------------------
STATIC POLARIZABILITY TENSOR (Dipole/Dipole)
---------------------------------------------------

Method             : SCF
Type of density    : Electron Density
Type of derivative : Electric Field (Direction=X)
Multiplicity       :   1
Irrep              :   0
Basis              : AO

The raw cartesian tensor (atomic units):
      89.690581929        -2.621534533         0.900366618  
      -2.621534533        86.100561712        -1.366825854  
       0.900366618        -1.366825854        68.499010797  
diagonalized tensor: 
      68.370348893        84.755942147        91.163863397  

Orientation: 
      -0.033253169         0.475375994        -0.879154077  
       0.071931062         0.878497740         0.472300375  
       0.996855129        -0.047533002        -0.063407134  

Isotropic polarizability :  81.43005


Polarizability tensor calculation done in   0.0 sec 

Maximum memory used throughout the entire PROP-calculation: 14.1 MB

--------------------------------
SUGGESTED CITATIONS FOR THIS RUN
--------------------------------

Below you find a list of papers that are relevant to this ORCA run
We neither can nor want to force you to cite these papers, but we appreciate if you do
You receive ORCA, which is the product of decades of hard work by many enthusiastic individuals, for free
The only thing we kindly ask in return is that you cite our papers,
We deeply appreciate it, if you show your appreciation for ORCA by not just citing the generic ORCA reference.

Please note that relegating all ORCA citations to the supporting information does *not* help us.
SI sections are not indexed - citations you put there will not count into any citation statistics
But we need these citations in order to attract the funding resources that allow us to do what we are doing

Therefore, if you are a happy ORCA user, please consider citing a few of the papers listed below in the main body of your paper

In addition to the list printed below, the program has created the file /kaggle/working/Gal-2/Gal_InterFrag.bibtex that contains the list in bibtex format
You can import this file easily into all common literature databanks and citation aid programs

It goes without saying that in many instances, there are alternative algorithms to achieve similar
results as the ones you have gotten from ORCA. It is, of course, also the case that in some instances
ORCA just re-implements algorithms worked out by others. We are fully aware of that and we are also
fully appreciative of our colleagues work. Hence this citation list should not be read as indicating
that the listed papers, which are focused on our own work, are the only ones worth citing. It simply
meant to make it easier for users to cite ORCA specific papers. It is not a substitute for doing your
own literature research and citing the relevant literature in a scientifically appropriate manner.

List of essential papers. We consider these as the minimum necessary citations

  1. Neese, F.
     Software update: the ORCA program system, version 6.0
     WIRES Comput. Molec. Sci. 2025 15(1), e70019
     doi.org/10.1002/wcms.70019

List of papers to cite with high priority. The work reported in these papers was absolutely
necessary for this run to complete.
Our perspective: the developers of density functionals and basis sets usually get cited in chemistry papers
Good! But without the algorithms to do something with them, the functionals or basis sets would not do anything.
Hence, in our opinion, the algorithm design and method developments papers are equally worthy of getting cited

  1. Neese, F.
     An improvement of the resolution of the identity approximation for the formation of the Coulomb matrix
     J. Comp. Chem. 2003 24(14), 1740-1747
     doi.org/10.1002/jcc.10318
  2. Neese, F.; Wennmohs, F.; Hansen, A.; Becker, U.
     Efficient, approximate and parallel Hartree-Fock and hybrid DFT calculations. A 'chain-of-spheres' algorithm for the Hartree-Fock exchange
     Chem. Phys. 2009 356(1-3), 98-109
     doi.org/10.1016/j.chemphys.2008.10.036
  3. Grimme, S.; Antony, J.; Ehrlich, S.; Krieg, H.
     A consistent and accurate ab initio parametrization of density functional dispersion correction (DFT-D) for the 94 elements H-Pu
     J. Chem. Phys. 2010 132 , 154104
     doi.org/10.1063/1.3382344
  4. Grimme, S.; Ehrlich, S.; Goerigk, L.
     Effect of the damping function in dispersion corrected density functional theory
     J. Comput. Chem. 2011 32(7), 1456-1465
     doi.org/10.1002/jcc.21759
  5. Helmich-Paris, B.; de Souza, B.; Neese, F.; Izsák, R.
     An improved chain of spheres for exchange algorithm
     J. Chem. Phys. 2021 155(10), 104109
     doi.org/10.1063/5.0058766
  6. Neese, F.
     The SHARK Integral Generation and Digestion System
     J. Comp. Chem. 2022 44(3), 381
     doi.org/10.1002/jcc.26942

List of suggested additional citations. These are papers that are important in the 'surrounding' of 
of this run, or papers that preceded the highly important papers. If you like your results we are grateful for a citation.

  1. Izsak, R.; Neese, F.
     An overlap fitted chain of spheres exchange method
     J. Chem. Phys. 2011 135 , 144105
     doi.org/10.1063/1.3646921
  2. Izsak, R.; Hansen, A.; Neese, F.
     The resolution of identity and chain of spheres approximations for the LPNO-CCSD singles Fock term
     Molec. Phys. 2012 110 , 2413-2417
     doi.org/10.1080/00268976.2012.687466
  3. Neese, F.
     The ORCA program system
     WIRES Comput. Molec. Sci. 2012 2(1), 73-78
     doi.org/10.1002/wcms.81
  4. Izsak, R.; Neese, F.; Klopper, W.
     Robust fitting techniques in the chain of spheres approximation to the Fock exchange: The role of the complementary space
     J. Chem. Phys. 2013 139 , 
     doi.org/10.1063/1.4819264
  5. Neese, F.
     Software update: the ORCA program system, version 4.0
     WIRES Comput. Molec. Sci. 2018 8(1), 1-6
     doi.org/10.1002/wcms.1327
  6. Neese, F.; Wennmohs, F.; Becker, U.; Riplinger, C.
     The ORCA quantum chemistry program package
     J. Chem. Phys. 2020 152(22), 224108
     doi.org/10.1063/5.0004608
  7. Neese, F.
     Software update: The ORCA program system—Version 5.0
     WIRES Comput. Molec. Sci. 2022 12(1), e1606
     doi.org/10.1002/wcms.1606

List of optional additional citations

  1. Neese, F.
     Approximate second-order SCF convergence for spin unrestricted wavefunctions
     Chem. Phys. Lett. 2000 325(1-3), 93-98
     doi.org/10.1016/s0009-2614(00)00662-x

Timings for individual modules:

Sum of individual times          ...       61.505 sec (=   1.025 min)
Startup calculation              ...        2.229 sec (=   0.037 min)   3.6 %
SCF iterations                   ...       40.689 sec (=   0.678 min)  66.2 %
SCF Response                     ...       18.181 sec (=   0.303 min)  29.6 %
Property calculations            ...        0.405 sec (=   0.007 min)   0.7 %
                             ****ORCA TERMINATED NORMALLY****
TOTAL RUN TIME: 0 days 0 hours 1 minutes 1 seconds 990 msec
