[Molden Format]
[Title]
 Molden file created by orca_2mkl for BaseName=/kaggle/working/Trp-OMe-2/Trp-OMe_InterFrag

[Atoms] AU
O    1   8         -5.3184206649        -4.0615468057        -0.2736644695 
O    2   8          2.9477271045        -1.3789501675         3.3702887653 
O    3   8          3.7534175109        -4.2351200408         0.3170620302 
N    4   7         -1.1850869428         5.4831594303         0.3569087955 
N    5   7          7.7730388526        -1.0463300220        -1.2466334333 
C    6   6          1.5026951039         2.5292245754        -1.1599516955 
C    7   6          3.8531648151         1.2744766581        -2.1181070961 
C    8   6         -0.8988784712         1.3458667320        -0.6533293471 
C    9   6         -2.5370933951         3.2498867544         0.2962996092 
C   10   6          5.5071608419         0.0057598853        -0.0544146640 
C   11   6          1.2293084241         5.0389528464        -0.5174107949 
C   12   6         -1.7832173896        -1.1550610843        -0.9021836022 
C   13   6         -5.0299577500         2.7123598248         1.0011239934 
C   14   6         -4.2507065019        -1.6811060379        -0.1711128117 
C   15   6         -5.8651675683         0.2378220340         0.7639973787 
C   16   6          4.0234045734        -2.1142879596         1.1859316504 
C   17   6         -3.7282444691        -6.0766921734        -1.0963246166 
H   18   1          3.3881788026        -0.1724072741        -3.5250856816 
H   19   1          5.0624194655         2.6718856705        -3.0521231351 
H   20   1          5.8996475113         1.4250575954         1.4065137128 
H   21   1          2.5883446575         6.5610006356        -0.6214628953 
H   22   1         -1.8637764147         7.1776466190         0.9109141370 
H   23   1         -0.5451198492        -2.6148575152        -1.6209673934 
H   24   1         -6.2716665570         4.1770015135         1.7239820342 
H   25   1         -7.7764630363        -0.2755560854         1.3020591008 
H   26   1          8.9430949137        -1.7079873922         0.1318367437 
H   27   1          8.7163372263         0.4175009742        -2.0667878035 
H   28   1          1.8968409528        -2.7637017941         3.9817172149 
H   29   1         -4.8581570780        -7.7955908442        -0.9512427824 
H   30   1         -2.0459195578        -6.2506206770         0.1024458332 
H   31   1         -3.1298740271        -5.8137878044        -3.0631818124 
[GTO]
  1 0
s   6 1.0 
     5484.6717000000         0.8317352088
      825.2349500000         1.5308074829
      188.0469600000         2.4771490916
       52.9645000000         3.2562802462
       16.8975700000         2.7928936336
        5.7996353000         0.9549376963
s   3 1.0 
       15.5396160000        -0.6179336976
        3.5999336000        -0.2757210088
        1.0137618000         0.8142076427
p   3 1.0 
       15.5396160000         3.1169455889
        3.5999336000         2.4014372483
        1.0137618000         1.0543605133
s   1 1.0 
        0.2700058000         0.2669561389
p   1 1.0 
        0.2700058000         0.2774319373
d   1 1.0 
        0.8000000000         1.9292013661

  2 0
s   6 1.0 
     5484.6717000000         0.8317352088
      825.2349500000         1.5308074829
      188.0469600000         2.4771490916
       52.9645000000         3.2562802462
       16.8975700000         2.7928936336
        5.7996353000         0.9549376963
s   3 1.0 
       15.5396160000        -0.6179336976
        3.5999336000        -0.2757210088
        1.0137618000         0.8142076427
p   3 1.0 
       15.5396160000         3.1169455889
        3.5999336000         2.4014372483
        1.0137618000         1.0543605133
s   1 1.0 
        0.2700058000         0.2669561389
p   1 1.0 
        0.2700058000         0.2774319373
d   1 1.0 
        0.8000000000         1.9292013661

  3 0
s   6 1.0 
     5484.6717000000         0.8317352088
      825.2349500000         1.5308074829
      188.0469600000         2.4771490916
       52.9645000000         3.2562802462
       16.8975700000         2.7928936336
        5.7996353000         0.9549376963
s   3 1.0 
       15.5396160000        -0.6179336976
        3.5999336000        -0.2757210088
        1.0137618000         0.8142076427
p   3 1.0 
       15.5396160000         3.1169455889
        3.5999336000         2.4014372483
        1.0137618000         1.0543605133
s   1 1.0 
        0.2700058000         0.2669561389
p   1 1.0 
        0.2700058000         0.2774319373
d   1 1.0 
        0.8000000000         1.9292013661

  4 0
s   6 1.0 
     4173.5110000000         0.6790079572
      627.4579000000         1.2504643275
      142.9021000000         2.0203691378
       40.2343300000         2.6442129843
       12.8202100000         2.2650039968
        4.3904370000         0.7791872309
s   3 1.0 
       11.6263580000        -0.5158738103
        2.7162800000        -0.2550239186
        0.7722180000         0.6727344163
p   3 1.0 
       11.6263580000         2.0680595460
        2.7162800000         1.6100106206
        0.7722180000         0.7644899877
s   1 1.0 
        0.2120313000         0.2226947990
p   1 1.0 
        0.2120313000         0.2050879094
d   1 1.0 
        0.8000000000         1.9292013661

  5 0
s   6 1.0 
     4173.5110000000         0.6790079572
      627.4579000000         1.2504643275
      142.9021000000         2.0203691378
       40.2343300000         2.6442129843
       12.8202100000         2.2650039968
        4.3904370000         0.7791872309
s   3 1.0 
       11.6263580000        -0.5158738103
        2.7162800000        -0.2550239186
        0.7722180000         0.6727344163
p   3 1.0 
       11.6263580000         2.0680595460
        2.7162800000         1.6100106206
        0.7722180000         0.7644899877
s   1 1.0 
        0.2120313000         0.2226947990
p   1 1.0 
        0.2120313000         0.2050879094
d   1 1.0 
        0.8000000000         1.9292013661

  6 0
s   6 1.0 
     3047.5249000000         0.5363343823
      457.3695100000         0.9894506076
      103.9486900000         1.5972822308
       29.2101550000         2.0791870615
        9.2866630000         1.7741742532
        3.1639270000         0.6125798260
s   3 1.0 
        7.8682724000        -0.3995563516
        1.8812885000        -0.1841552393
        0.5442493000         0.5163903794
p   3 1.0 
        7.8682724000         1.2960827175
        1.8812885000         0.9937536282
        0.5442493000         0.4959527138
s   1 1.0 
        0.1687144000         0.1876178721
p   1 1.0 
        0.1687144000         0.1541275509
d   1 1.0 
        0.8000000000         1.9292013661

  7 0
s   6 1.0 
     3047.5249000000         0.5363343823
      457.3695100000         0.9894506076
      103.9486900000         1.5972822308
       29.2101550000         2.0791870615
        9.2866630000         1.7741742532
        3.1639270000         0.6125798260
s   3 1.0 
        7.8682724000        -0.3995563516
        1.8812885000        -0.1841552393
        0.5442493000         0.5163903794
p   3 1.0 
        7.8682724000         1.2960827175
        1.8812885000         0.9937536282
        0.5442493000         0.4959527138
s   1 1.0 
        0.1687144000         0.1876178721
p   1 1.0 
        0.1687144000         0.1541275509
d   1 1.0 
        0.8000000000         1.9292013661

  8 0
s   6 1.0 
     3047.5249000000         0.5363343823
      457.3695100000         0.9894506076
      103.9486900000         1.5972822308
       29.2101550000         2.0791870615
        9.2866630000         1.7741742532
        3.1639270000         0.6125798260
s   3 1.0 
        7.8682724000        -0.3995563516
        1.8812885000        -0.1841552393
        0.5442493000         0.5163903794
p   3 1.0 
        7.8682724000         1.2960827175
        1.8812885000         0.9937536282
        0.5442493000         0.4959527138
s   1 1.0 
        0.1687144000         0.1876178721
p   1 1.0 
        0.1687144000         0.1541275509
d   1 1.0 
        0.8000000000         1.9292013661

  9 0
s   6 1.0 
     3047.5249000000         0.5363343823
      457.3695100000         0.9894506076
      103.9486900000         1.5972822308
       29.2101550000         2.0791870615
        9.2866630000         1.7741742532
        3.1639270000         0.6125798260
s   3 1.0 
        7.8682724000        -0.3995563516
        1.8812885000        -0.1841552393
        0.5442493000         0.5163903794
p   3 1.0 
        7.8682724000         1.2960827175
        1.8812885000         0.9937536282
        0.5442493000         0.4959527138
s   1 1.0 
        0.1687144000         0.1876178721
p   1 1.0 
        0.1687144000         0.1541275509
d   1 1.0 
        0.8000000000         1.9292013661

 10 0
s   6 1.0 
     3047.5249000000         0.5363343823
      457.3695100000         0.9894506076
      103.9486900000         1.5972822308
       29.2101550000         2.0791870615
        9.2866630000         1.7741742532
        3.1639270000         0.6125798260
s   3 1.0 
        7.8682724000        -0.3995563516
        1.8812885000        -0.1841552393
        0.5442493000         0.5163903794
p   3 1.0 
        7.8682724000         1.2960827175
        1.8812885000         0.9937536282
        0.5442493000         0.4959527138
s   1 1.0 
        0.1687144000         0.1876178721
p   1 1.0 
        0.1687144000         0.1541275509
d   1 1.0 
        0.8000000000         1.9292013661

 11 0
s   6 1.0 
     3047.5249000000         0.5363343823
      457.3695100000         0.9894506076
      103.9486900000         1.5972822308
       29.2101550000         2.0791870615
        9.2866630000         1.7741742532
        3.1639270000         0.6125798260
s   3 1.0 
        7.8682724000        -0.3995563516
        1.8812885000        -0.1841552393
        0.5442493000         0.5163903794
p   3 1.0 
        7.8682724000         1.2960827175
        1.8812885000         0.9937536282
        0.5442493000         0.4959527138
s   1 1.0 
        0.1687144000         0.1876178721
p   1 1.0 
        0.1687144000         0.1541275509
d   1 1.0 
        0.8000000000         1.9292013661

 12 0
s   6 1.0 
     3047.5249000000         0.5363343823
      457.3695100000         0.9894506076
      103.9486900000         1.5972822308
       29.2101550000         2.0791870615
        9.2866630000         1.7741742532
        3.1639270000         0.6125798260
s   3 1.0 
        7.8682724000        -0.3995563516
        1.8812885000        -0.1841552393
        0.5442493000         0.5163903794
p   3 1.0 
        7.8682724000         1.2960827175
        1.8812885000         0.9937536282
        0.5442493000         0.4959527138
s   1 1.0 
        0.1687144000         0.1876178721
p   1 1.0 
        0.1687144000         0.1541275509
d   1 1.0 
        0.8000000000         1.9292013661

 13 0
s   6 1.0 
     3047.5249000000         0.5363343823
      457.3695100000         0.9894506076
      103.9486900000         1.5972822308
       29.2101550000         2.0791870615
        9.2866630000         1.7741742532
        3.1639270000         0.6125798260
s   3 1.0 
        7.8682724000        -0.3995563516
        1.8812885000        -0.1841552393
        0.5442493000         0.5163903794
p   3 1.0 
        7.8682724000         1.2960827175
        1.8812885000         0.9937536282
        0.5442493000         0.4959527138
s   1 1.0 
        0.1687144000         0.1876178721
p   1 1.0 
        0.1687144000         0.1541275509
d   1 1.0 
        0.8000000000         1.9292013661

 14 0
s   6 1.0 
     3047.5249000000         0.5363343823
      457.3695100000         0.9894506076
      103.9486900000         1.5972822308
       29.2101550000         2.0791870615
        9.2866630000         1.7741742532
        3.1639270000         0.6125798260
s   3 1.0 
        7.8682724000        -0.3995563516
        1.8812885000        -0.1841552393
        0.5442493000         0.5163903794
p   3 1.0 
        7.8682724000         1.2960827175
        1.8812885000         0.9937536282
        0.5442493000         0.4959527138
s   1 1.0 
        0.1687144000         0.1876178721
p   1 1.0 
        0.1687144000         0.1541275509
d   1 1.0 
        0.8000000000         1.9292013661

 15 0
s   6 1.0 
     3047.5249000000         0.5363343823
      457.3695100000         0.9894506076
      103.9486900000         1.5972822308
       29.2101550000         2.0791870615
        9.2866630000         1.7741742532
        3.1639270000         0.6125798260
s   3 1.0 
        7.8682724000        -0.3995563516
        1.8812885000        -0.1841552393
        0.5442493000         0.5163903794
p   3 1.0 
        7.8682724000         1.2960827175
        1.8812885000         0.9937536282
        0.5442493000         0.4959527138
s   1 1.0 
        0.1687144000         0.1876178721
p   1 1.0 
        0.1687144000         0.1541275509
d   1 1.0 
        0.8000000000         1.9292013661

 16 0
s   6 1.0 
     3047.5249000000         0.5363343823
      457.3695100000         0.9894506076
      103.9486900000         1.5972822308
       29.2101550000         2.0791870615
        9.2866630000         1.7741742532
        3.1639270000         0.6125798260
s   3 1.0 
        7.8682724000        -0.3995563516
        1.8812885000        -0.1841552393
        0.5442493000         0.5163903794
p   3 1.0 
        7.8682724000         1.2960827175
        1.8812885000         0.9937536282
        0.5442493000         0.4959527138
s   1 1.0 
        0.1687144000         0.1876178721
p   1 1.0 
        0.1687144000         0.1541275509
d   1 1.0 
        0.8000000000         1.9292013661

 17 0
s   6 1.0 
     3047.5249000000         0.5363343823
      457.3695100000         0.9894506076
      103.9486900000         1.5972822308
       29.2101550000         2.0791870615
        9.2866630000         1.7741742532
        3.1639270000         0.6125798260
s   3 1.0 
        7.8682724000        -0.3995563516
        1.8812885000        -0.1841552393
        0.5442493000         0.5163903794
p   3 1.0 
        7.8682724000         1.2960827175
        1.8812885000         0.9937536282
        0.5442493000         0.4959527138
s   1 1.0 
        0.1687144000         0.1876178721
p   1 1.0 
        0.1687144000         0.1541275509
d   1 1.0 
        0.8000000000         1.9292013661

 18 0
s   3 1.0 
       18.7311370000         0.2149354183
        2.8253937000         0.3645711272
        0.6401217000         0.4150514277
s   1 1.0 
        0.1612778000         0.1813806839
p   1 1.0 
        1.1000000000         1.6057611426

 19 0
s   3 1.0 
       18.7311370000         0.2149354183
        2.8253937000         0.3645711272
        0.6401217000         0.4150514277
s   1 1.0 
        0.1612778000         0.1813806839
p   1 1.0 
        1.1000000000         1.6057611426

 20 0
s   3 1.0 
       18.7311370000         0.2149354183
        2.8253937000         0.3645711272
        0.6401217000         0.4150514277
s   1 1.0 
        0.1612778000         0.1813806839
p   1 1.0 
        1.1000000000         1.6057611426

 21 0
s   3 1.0 
       18.7311370000         0.2149354183
        2.8253937000         0.3645711272
        0.6401217000         0.4150514277
s   1 1.0 
        0.1612778000         0.1813806839
p   1 1.0 
        1.1000000000         1.6057611426

 22 0
s   3 1.0 
       18.7311370000         0.2149354183
        2.8253937000         0.3645711272
        0.6401217000         0.4150514277
s   1 1.0 
        0.1612778000         0.1813806839
p   1 1.0 
        1.1000000000         1.6057611426

 23 0
s   3 1.0 
       18.7311370000         0.2149354183
        2.8253937000         0.3645711272
        0.6401217000         0.4150514277
s   1 1.0 
        0.1612778000         0.1813806839
p   1 1.0 
        1.1000000000         1.6057611426

 24 0
s   3 1.0 
       18.7311370000         0.2149354183
        2.8253937000         0.3645711272
        0.6401217000         0.4150514277
s   1 1.0 
        0.1612778000         0.1813806839
p   1 1.0 
        1.1000000000         1.6057611426

 25 0
s   3 1.0 
       18.7311370000         0.2149354183
        2.8253937000         0.3645711272
        0.6401217000         0.4150514277
s   1 1.0 
        0.1612778000         0.1813806839
p   1 1.0 
        1.1000000000         1.6057611426

 26 0
s   3 1.0 
       18.7311370000         0.2149354183
        2.8253937000         0.3645711272
        0.6401217000         0.4150514277
s   1 1.0 
        0.1612778000         0.1813806839
p   1 1.0 
        1.1000000000         1.6057611426

 27 0
s   3 1.0 
       18.7311370000         0.2149354183
        2.8253937000         0.3645711272
        0.6401217000         0.4150514277
s   1 1.0 
        0.1612778000         0.1813806839
p   1 1.0 
        1.1000000000         1.6057611426

 28 0
s   3 1.0 
       18.7311370000         0.2149354183
        2.8253937000         0.3645711272
        0.6401217000         0.4150514277
s   1 1.0 
        0.1612778000         0.1813806839
p   1 1.0 
        1.1000000000         1.6057611426

 29 0
s   3 1.0 
       18.7311370000         0.2149354183
        2.8253937000         0.3645711272
        0.6401217000         0.4150514277
s   1 1.0 
        0.1612778000         0.1813806839
p   1 1.0 
        1.1000000000         1.6057611426

 30 0
s   3 1.0 
       18.7311370000         0.2149354183
        2.8253937000         0.3645711272
        0.6401217000         0.4150514277
s   1 1.0 
        0.1612778000         0.1813806839
p   1 1.0 
        1.1000000000         1.6057611426

 31 0
s   3 1.0 
       18.7311370000         0.2149354183
        2.8253937000         0.3645711272
        0.6401217000         0.4150514277
s   1 1.0 
        0.1612778000         0.1813806839
p   1 1.0 
        1.1000000000         1.6057611426

[5D]
[7F]
[9G]
[MO]
 Sym=     1a
 Ene= -1.91850500625169E+01
 Spin= Alpha
 Occup= 2.000000
  1       0.000015700337
  2       0.000015026908
  3       0.000002170937
  4      -0.000003460316
  5       0.000010841371
  6      -0.000106990410
  7      -0.000027044781
  8      -0.000003812269
  9      -0.000062111735
 10      -0.000001822557
 11      -0.000003072250
 12      -0.000008154149
 13      -0.000008772022
 14      -0.000004900829
 15       0.995107657161
 16       0.030375868864
 17      -0.000221225642
 18      -0.001801735037
 19      -0.000929367032
 20      -0.022055129410
 21      -0.002702767164
 22       0.002567876642
 23       0.006095945957
 24      -0.000662130115
 25       0.000150975652
 26      -0.000724119399
 27      -0.000108723684
 28       0.000681886187
 29      -0.000539755919
 30      -0.000548022780
 31      -0.000112917703
 32      -0.000137987469
 33       0.000060748346
 34       0.002438355455
 35       0.001596164865
 36       0.001026942015
 37      -0.001667579790
 38      -0.000262371684
 39      -0.000023424719
 40      -0.000342444694
 41      -0.000116628306
 42       0.000412294431
 43      -0.000003525340
 44      -0.000033724157
 45       0.000016663063
 46       0.000007719306
 47       0.000006076228
 48       0.000289341440
 49      -0.000258070042
 50      -0.000163059614
 51      -0.000001902736
 52      -0.000003516235
 53      -0.000003268125
 54       0.000000323839
 55      -0.000005215492
 56       0.000008523615
 57      -0.000019331172
 58      -0.000319226401
 59       0.000163540009
 60       0.000113924759
 61      -0.000094917198
 62      -0.000645354122
 63      -0.000039682161
 64      -0.001092364526
 65       0.000984888610
 66       0.000081947078
 67      -0.000099771757
 68       0.000008762767
 69      -0.000015106146
 70       0.000025200824
 71       0.000037262754
 72       0.000412749563
 73       0.000082968179
 74      -0.000137767835
 75      -0.000010841366
 76      -0.001706510556
 77      -0.000151115615
 78       0.001876457585
 79       0.000299418209
 80      -0.000000673423
 81       0.000032340206
 82       0.000072846353
 83      -0.000033905222
 84      -0.000034791324
 85       0.000043246968
 86       0.000361091648
 87      -0.000133390536
 88       0.000073035367
 89      -0.000011668720
 90      -0.001892050991
 91      -0.001327447351
 92       0.001251270085
 93      -0.000222445970
 94       0.000018469161
 95      -0.000029854470
 96       0.000074002321
 97       0.000044173048
 98       0.000117973444
 99      -0.000003224529
100       0.000013751266
101      -0.000023240329
102       0.000017337843
103       0.000012192686
104       0.000445817271
105       0.001743538131
106      -0.000921425577
107      -0.000681415275
108      -0.000023334590
109      -0.000044960361
110       0.000011154685
111       0.000005567349
112       0.000011670380
113      -0.000008833244
114      -0.000072823413
115       0.000008117394
116      -0.000010722470
117      -0.000011258667
118       0.001302450796
119      -0.000046319735
120      -0.001024352519
121      -0.000203205980
122      -0.000000301173
123      -0.000006081150
124       0.000007234402
125       0.000003928155
126      -0.000008742119
127      -0.000073442373
128      -0.001012241615
129       0.000192348276
130       0.000226912873
131       0.000058297906
132       0.003176761709
133      -0.000617369575
134      -0.002059105290
135      -0.003818135983
136      -0.000104615282
137       0.000188295976
138       0.000136955444
139      -0.000194084783
140      -0.000020596933
141       0.000006021768
142       0.000024648822
143      -0.000003684381
144       0.000038966825
145      -0.000003677414
146      -0.000867574309
147      -0.000186436442
148       0.000449289218
149       0.000263105534
150       0.000013982768
151       0.000006503313
152      -0.000017934597
153       0.000020526567
154      -0.000002161058
155       0.000024464670
156       0.000269247079
157       0.000120961588
158      -0.000063238278
159       0.000051197841
160      -0.000684385644
161      -0.001752454985
162       0.000305326361
163       0.000181264868
164       0.000024241127
165      -0.000023656531
166      -0.000011975124
167       0.000009745631
168       0.000002323636
169       0.000005831855
170       0.000032561037
171      -0.000012927183
172      -0.000007000518
173      -0.000002764967
174      -0.000767063981
175      -0.000213340865
176       0.000504495331
177       0.000210022299
178       0.000006460210
179       0.000003422994
180      -0.000007017305
181      -0.000002218076
182       0.000002188664
183       0.000005392792
184       0.000021952560
185      -0.000035761072
186       0.000007632486
187      -0.000010512846
188      -0.001192274100
189      -0.000248442949
190      -0.000525519435
191       0.000234518398
192      -0.000002253832
193       0.000023756627
194       0.000000332519
195       0.000000863516
196      -0.000003922901
197      -0.000006314202
198      -0.000039168655
199       0.000004297011
200      -0.000002288020
201       0.000002275592
202       0.000808301945
203       0.000346846348
204       0.000197941640
205      -0.000161756672
206      -0.000002676977
207      -0.000007778455
208       0.000012495305
209      -0.000005816707
210       0.000003215501
211       0.000034022860
212       0.000005631763
213      -0.000189912501
214       0.000092875134
215       0.000689221482
216       0.007974560412
217      -0.005310211095
218       0.003627550422
219       0.010277569448
220      -0.000089507742
221      -0.000200152143
222      -0.000216780224
223      -0.000011953628
224       0.000319671070
225      -0.000000184433
226      -0.000001827400
227       0.000001376569
228       0.000008069158
229       0.000000261153
230       0.000061277324
231      -0.000005477346
232      -0.000072671547
233       0.000001939076
234       0.000005387422
235      -0.000001726003
236       0.000002348022
237       0.000002298382
238       0.000000494110
239       0.000018204695
240       0.000813146451
241      -0.000006149281
242      -0.000013199693
243       0.000081526743
244       0.000081601442
245      -0.000033035487
246       0.000054844426
247      -0.000033842481
248      -0.000020044322
249       0.000049377475
250       0.001530683938
251       0.000061844525
252       0.000029084690
253      -0.000045696754
254       0.000029763799
255      -0.000032583934
256       0.000004806176
257      -0.000007469726
258      -0.000013568611
259      -0.000007829133
260       0.000007655307
261       0.000005095831
262       0.000003040108
263       0.000004267693
264       0.000202914663
265       0.000774335112
266       0.000027579994
267       0.000046250240
268       0.000015826234
269      -0.000023245723
270      -0.000140756511
271      -0.000000676377
272      -0.000004862292
273      -0.000003350385
274       0.000006535681
275       0.000079187483
276      -0.000000809986
277      -0.000002734082
278       0.000006090959
279      -0.000171708509
280      -0.000333264809
281       0.000054555140
282       0.000056078691
283       0.000000312040
284       0.000179918540
285       0.000690930852
286      -0.000022726771
287      -0.000057868127
288      -0.000015313943
289      -0.000436148630
290       0.000414271338
291      -0.000911335489
292      -0.001444702373
293       0.000358034550
294      -0.000010109633
295      -0.000037281807
296      -0.000002419526
297       0.000000483108
298      -0.000000397425
299       0.000006931529
300      -0.000054520200
301       0.000002457779
302       0.000000739394
303       0.000003019247
304       0.000014063397
305      -0.000074944259
306      -0.000003797056
307      -0.000002657495
308      -0.000009286719
 Sym=     1a
 Ene= -1.91527822281613E+01
 Spin= Alpha
 Occup= 2.000000
  1       0.995238985491
  2       0.031338390427
  3       0.001752369434
  4       0.000442368630
  5      -0.000456078674
  6      -0.027754958037
  7      -0.005903006535
  8      -0.003699617076
  9       0.001155884499
 10       0.000511178054
 11       0.000160044593
 12      -0.000154735158
 13       0.000292188815
 14      -0.000189580879
 15      -0.000013885728
 16       0.000011628176
 17      -0.000005024100
 18      -0.000005801632
 19      -0.000004443687
 20      -0.000033931233
 21       0.000033789294
 22       0.000063378795
 23       0.000031900280
 24      -0.000002922265
 25      -0.000001874611
 26      -0.000012714673
 27       0.000006824322
 28      -0.000002767738
 29       0.000083367726
 30       0.000070509352
 31       0.000005622273
 32       0.000006095535
 33      -0.000017565983
 34      -0.000310259198
 35       0.000031123729
 36      -0.000114376636
 37       0.000005460258
 38       0.000000092630
 39      -0.000011342775
 40      -0.000002758474
 41       0.000010942153
 42       0.000007149494
 43      -0.000029302790
 44      -0.000274260521
 45      -0.000024354169
 46      -0.000000723122
 47       0.000007675681
 48       0.002914597167
 49      -0.000082056635
 50      -0.000997692079
 51      -0.000195347212
 52      -0.000011515127
 53       0.000003836538
 54       0.000000152670
 55      -0.000012618906
 56       0.000023045184
 57       0.000003937798
 58       0.000032207639
 59       0.000001020565
 60       0.000003030409
 61      -0.000001678407
 62      -0.000224037148
 63       0.000121481701
 64      -0.000019957253
 65      -0.000045617735
 66       0.000003323119
 67       0.000009817908
 68       0.000006771811
 69      -0.000011535101
 70       0.000000097374
 71      -0.000053765883
 72      -0.000386854545
 73       0.000015406074
 74       0.000047505551
 75       0.000002424001
 76       0.001497136936
 77      -0.000946534982
 78      -0.001845000027
 79      -0.000089036973
 80      -0.000089902430
 81      -0.000028669971
 82      -0.000002185428
 83       0.000010997322
 84       0.000110947754
 85      -0.000001094306
 86      -0.000030296170
 87       0.000016271276
 88      -0.000035670036
 89      -0.000013014618
 90      -0.000195543714
 91       0.000479853405
 92       0.000448836462
 93      -0.000016918651
 94      -0.000003048518
 95       0.000006488322
 96       0.000009228345
 97      -0.000048706153
 98      -0.000000221255
 99       0.000058829502
100       0.000271788652
101       0.000212529159
102       0.000054695932
103      -0.000064786457
104      -0.010590936839
105       0.000836412824
106       0.006051020119
107       0.001080869214
108       0.000080092409
109       0.000006290808
110       0.000026424262
111      -0.000026245020
112      -0.000168731090
113      -0.000029995830
114      -0.000379941930
115       0.000044269301
116       0.000138110839
117       0.000015836412
118       0.001585493188
119      -0.004036557836
120      -0.002989328317
121       0.000654023821
122       0.000008113690
123      -0.000023476749
124      -0.000007102526
125       0.000050999330
126      -0.000021732866
127      -0.000005077916
128      -0.000030443519
129      -0.000013674157
130       0.000023895483
131       0.000004616486
132       0.000365507662
133       0.000016372982
134      -0.000445471455
135      -0.000019032746
136      -0.000001848654
137      -0.000007370387
138       0.000001087574
139       0.000012886627
140       0.000003840677
141      -0.000000883838
142      -0.000073490350
143       0.000057219323
144      -0.000027438561
145      -0.000022434592
146       0.000310600399
147       0.000843542952
148       0.000128574349
149      -0.000254507000
150       0.000018618089
151       0.000004032285
152       0.000007527505
153      -0.000006014523
154      -0.000035334966
155      -0.000065437965
156      -0.000444460139
157      -0.000031344229
158      -0.000250804059
159      -0.000033501799
160       0.009837300693
161      -0.000083008333
162       0.010984700560
163       0.002290754292
164      -0.000090568847
165      -0.000126257618
166       0.000182713080
167      -0.000038736325