[Molden Format]
[Title]
 Molden file created by orca_2mkl for BaseName=/kaggle/working/Ile-2/Ile_InterFrag

[Atoms] AU
O    1   8          3.0521477015        -0.4675560401         0.0098908266 
O    2   8          4.8795525573         3.1418265449         1.3498805103 
N    3   7          7.3602451861        -2.7383737948        -1.5972815661 
C    4   6          9.9750044356         0.9597011966        -0.4587593649 
C    5   6          7.4492323898        -0.2015014977        -0.6415828095 
C    6   6         12.0597011736        -0.5138259844        -0.6403280313 
C    7   6         10.2156950738         3.7954771455        -0.2225643851 
C    8   6         14.7635118774         0.3372594231        -0.5427671402 
C    9   6          5.2649810995         0.8669496585         0.1611917495 
H   10   1         12.1049355481         4.3733176027        -0.7722214668 
H   11   1         11.4114041672        -3.4233239293         5.5058966152 
H   12   1         11.4732889187        -2.8730545763         4.2131746512 
H   13   1         11.7759795816        -2.5432123283        -0.7759593451 
H   14   1          8.8749532790         4.8822945499        -1.3614342959 
H   15   1          9.9842338580         4.4152714126         1.7475280218 
H   16   1          6.2858924153         4.2670960967         1.0327183247 
H   17   1         15.9190945261        -0.7413452315        -1.8831309897 
H   18   1         15.5652338589         0.0019464179         1.3438655121 
H   19   1         15.0100039749         2.3473724501        -0.9761663804 
H   20   1          5.5446473393        -3.2561889911        -1.9440954445 
H   21   1          8.3400833044        -2.8272419457        -3.2521752128 
H   22   1          1.6550637221         0.7180902617        -0.0671533079 
[GTO]
  1 0
s   6 1.0 
     5484.6717000000         0.8317352088
      825.2349500000         1.5308074829
      188.0469600000         2.4771490916
       52.9645000000         3.2562802462
       16.8975700000         2.7928936336
        5.7996353000         0.9549376963
s   3 1.0 
       15.5396160000        -0.6179336976
        3.5999336000        -0.2757210088
        1.0137618000         0.8142076427
p   3 1.0 
       15.5396160000         3.1169455889
        3.5999336000         2.4014372483
        1.0137618000         1.0543605133
s   1 1.0 
        0.2700058000         0.2669561389
p   1 1.0 
        0.2700058000         0.2774319373
d   1 1.0 
        0.8000000000         1.9292013661

  2 0
s   6 1.0 
     5484.6717000000         0.8317352088
      825.2349500000         1.5308074829
      188.0469600000         2.4771490916
       52.9645000000         3.2562802462
       16.8975700000         2.7928936336
        5.7996353000         0.9549376963
s   3 1.0 
       15.5396160000        -0.6179336976
        3.5999336000        -0.2757210088
        1.0137618000         0.8142076427
p   3 1.0 
       15.5396160000         3.1169455889
        3.5999336000         2.4014372483
        1.0137618000         1.0543605133
s   1 1.0 
        0.2700058000         0.2669561389
p   1 1.0 
        0.2700058000         0.2774319373
d   1 1.0 
        0.8000000000         1.9292013661

  3 0
s   6 1.0 
     4173.5110000000         0.6790079572
      627.4579000000         1.2504643275
      142.9021000000         2.0203691378
       40.2343300000         2.6442129843
       12.8202100000         2.2650039968
        4.3904370000         0.7791872309
s   3 1.0 
       11.6263580000        -0.5158738103
        2.7162800000        -0.2550239186
        0.7722180000         0.6727344163
p   3 1.0 
       11.6263580000         2.0680595460
        2.7162800000         1.6100106206
        0.7722180000         0.7644899877
s   1 1.0 
        0.2120313000         0.2226947990
p   1 1.0 
        0.2120313000         0.2050879094
d   1 1.0 
        0.8000000000         1.9292013661

  4 0
s   6 1.0 
     3047.5249000000         0.5363343823
      457.3695100000         0.9894506076
      103.9486900000         1.5972822308
       29.2101550000         2.0791870615
        9.2866630000         1.7741742532
        3.1639270000         0.6125798260
s   3 1.0 
        7.8682724000        -0.3995563516
        1.8812885000        -0.1841552393
        0.5442493000         0.5163903794
p   3 1.0 
        7.8682724000         1.2960827175
        1.8812885000         0.9937536282
        0.5442493000         0.4959527138
s   1 1.0 
        0.1687144000         0.1876178721
p   1 1.0 
        0.1687144000         0.1541275509
d   1 1.0 
        0.8000000000         1.9292013661

  5 0
s   6 1.0 
     3047.5249000000         0.5363343823
      457.3695100000         0.9894506076
      103.9486900000         1.5972822308
       29.2101550000         2.0791870615
        9.2866630000         1.7741742532
        3.1639270000         0.6125798260
s   3 1.0 
        7.8682724000        -0.3995563516
        1.8812885000        -0.1841552393
        0.5442493000         0.5163903794
p   3 1.0 
        7.8682724000         1.2960827175
        1.8812885000         0.9937536282
        0.5442493000         0.4959527138
s   1 1.0 
        0.1687144000         0.1876178721
p   1 1.0 
        0.1687144000         0.1541275509
d   1 1.0 
        0.8000000000         1.9292013661

  6 0
s   6 1.0 
     3047.5249000000         0.5363343823
      457.3695100000         0.9894506076
      103.9486900000         1.5972822308
       29.2101550000         2.0791870615
        9.2866630000         1.7741742532
        3.1639270000         0.6125798260
s   3 1.0 
        7.8682724000        -0.3995563516
        1.8812885000        -0.1841552393
        0.5442493000         0.5163903794
p   3 1.0 
        7.8682724000         1.2960827175
        1.8812885000         0.9937536282
        0.5442493000         0.4959527138
s   1 1.0 
        0.1687144000         0.1876178721
p   1 1.0 
        0.1687144000         0.1541275509
d   1 1.0 
        0.8000000000         1.9292013661

  7 0
s   6 1.0 
     3047.5249000000         0.5363343823
      457.3695100000         0.9894506076
      103.9486900000         1.5972822308
       29.2101550000         2.0791870615
        9.2866630000         1.7741742532
        3.1639270000         0.6125798260
s   3 1.0 
        7.8682724000        -0.3995563516
        1.8812885000        -0.1841552393
        0.5442493000         0.5163903794
p   3 1.0 
        7.8682724000         1.2960827175
        1.8812885000         0.9937536282
        0.5442493000         0.4959527138
s   1 1.0 
        0.1687144000         0.1876178721
p   1 1.0 
        0.1687144000         0.1541275509
d   1 1.0 
        0.8000000000         1.9292013661

  8 0
s   6 1.0 
     3047.5249000000         0.5363343823
      457.3695100000         0.9894506076
      103.9486900000         1.5972822308
       29.2101550000         2.0791870615
        9.2866630000         1.7741742532
        3.1639270000         0.6125798260
s   3 1.0 
        7.8682724000        -0.3995563516
        1.8812885000        -0.1841552393
        0.5442493000         0.5163903794
p   3 1.0 
        7.8682724000         1.2960827175
        1.8812885000         0.9937536282
        0.5442493000         0.4959527138
s   1 1.0 
        0.1687144000         0.1876178721
p   1 1.0 
        0.1687144000         0.1541275509
d   1 1.0 
        0.8000000000         1.9292013661

  9 0
s   6 1.0 
     3047.5249000000         0.5363343823
      457.3695100000         0.9894506076
      103.9486900000         1.5972822308
       29.2101550000         2.0791870615
        9.2866630000         1.7741742532
        3.1639270000         0.6125798260
s   3 1.0 
        7.8682724000        -0.3995563516
        1.8812885000        -0.1841552393
        0.5442493000         0.5163903794
p   3 1.0 
        7.8682724000         1.2960827175
        1.8812885000         0.9937536282
        0.5442493000         0.4959527138
s   1 1.0 
        0.1687144000         0.1876178721
p   1 1.0 
        0.1687144000         0.1541275509
d   1 1.0 
        0.8000000000         1.9292013661

 10 0
s   3 1.0 
       18.7311370000         0.2149354183
        2.8253937000         0.3645711272
        0.6401217000         0.4150514277
s   1 1.0 
        0.1612778000         0.1813806839
p   1 1.0 
        1.1000000000         1.6057611426

 11 0
s   3 1.0 
       18.7311370000         0.2149354183
        2.8253937000         0.3645711272
        0.6401217000         0.4150514277
s   1 1.0 
        0.1612778000         0.1813806839
p   1 1.0 
        1.1000000000         1.6057611426

 12 0
s   3 1.0 
       18.7311370000         0.2149354183
        2.8253937000         0.3645711272
        0.6401217000         0.4150514277
s   1 1.0 
        0.1612778000         0.1813806839
p   1 1.0 
        1.1000000000         1.6057611426

 13 0
s   3 1.0 
       18.7311370000         0.2149354183
        2.8253937000         0.3645711272
        0.6401217000         0.4150514277
s   1 1.0 
        0.1612778000         0.1813806839
p   1 1.0 
        1.1000000000         1.6057611426

 14 0
s   3 1.0 
       18.7311370000         0.2149354183
        2.8253937000         0.3645711272
        0.6401217000         0.4150514277
s   1 1.0 
        0.1612778000         0.1813806839
p   1 1.0 
        1.1000000000         1.6057611426

 15 0
s   3 1.0 
       18.7311370000         0.2149354183
        2.8253937000         0.3645711272
        0.6401217000         0.4150514277
s   1 1.0 
        0.1612778000         0.1813806839
p   1 1.0 
        1.1000000000         1.6057611426

 16 0
s   3 1.0 
       18.7311370000         0.2149354183
        2.8253937000         0.3645711272
        0.6401217000         0.4150514277
s   1 1.0 
        0.1612778000         0.1813806839
p   1 1.0 
        1.1000000000         1.6057611426

 17 0
s   3 1.0 
       18.7311370000         0.2149354183
        2.8253937000         0.3645711272
        0.6401217000         0.4150514277
s   1 1.0 
        0.1612778000         0.1813806839
p   1 1.0 
        1.1000000000         1.6057611426

 18 0
s   3 1.0 
       18.7311370000         0.2149354183
        2.8253937000         0.3645711272
        0.6401217000         0.4150514277
s   1 1.0 
        0.1612778000         0.1813806839
p   1 1.0 
        1.1000000000         1.6057611426

 19 0
s   3 1.0 
       18.7311370000         0.2149354183
        2.8253937000         0.3645711272
        0.6401217000         0.4150514277
s   1 1.0 
        0.1612778000         0.1813806839
p   1 1.0 
        1.1000000000         1.6057611426

 20 0
s   3 1.0 
       18.7311370000         0.2149354183
        2.8253937000         0.3645711272
        0.6401217000         0.4150514277
s   1 1.0 
        0.1612778000         0.1813806839
p   1 1.0 
        1.1000000000         1.6057611426

 21 0
s   3 1.0 
       18.7311370000         0.2149354183
        2.8253937000         0.3645711272
        0.6401217000         0.4150514277
s   1 1.0 
        0.1612778000         0.1813806839
p   1 1.0 
        1.1000000000         1.6057611426

 22 0
s   3 1.0 
       18.7311370000         0.2149354183
        2.8253937000         0.3645711272
        0.6401217000         0.4150514277
s   1 1.0 
        0.1612778000         0.1813806839
p   1 1.0 
        1.1000000000         1.6057611426

[5D]
[7F]
[9G]
[MO]
 Sym=     1a
 Ene= -1.91733176934516E+01
 Spin= Alpha
 Occup= 2.000000
  1       0.007162436595
  2       0.000977041480
  3       0.000208196083
  4       0.000024214503
  5      -0.000036747251
  6      -0.004076945779
  7      -0.002221332949
  8       0.000618363999
  9       0.000841829460
 10       0.000067737953
 11       0.000148256905
 12       0.000087446448
 13      -0.000260593645
 14       0.000140870507
 15      -0.995112924467
 16      -0.030780572164
 17      -0.001603947096
 18       0.000411887338
 19       0.001140880936
 20       0.024191102045
 21       0.001912795785
 22      -0.006052489251
 23      -0.003725929256
 24       0.000223556410
 25      -0.000028695528
 26       0.000642673816
 27      -0.000543985767
 28      -0.000813920649
 29      -0.000036952880
 30      -0.000295555134
 31      -0.000053856867
 32       0.000141593442
 33       0.000041108050
 34       0.004939730815
 35      -0.000855899569
 36       0.001534286331
 37       0.000504922808
 38       0.000120648624
 39      -0.000065861282
 40      -0.000028033697
 41      -0.000079412825
 42      -0.000179412263
 43       0.000068274708
 44       0.000432168924
 45       0.000058987102
 46      -0.000011177329
 47      -0.000033638074
 48      -0.008900839236
 49       0.007547201070
 50       0.002501435716
 51       0.000321959744
 52       0.000133141390
 53      -0.000043694566
 54       0.000019174931
 55      -0.000122554364
 56      -0.000099243382
 57      -0.000062289324
 58      -0.000442413890
 59      -0.000296205921
 60      -0.000249168444
 61      -0.000092575957
 62      -0.000143609359
 63       0.012399499532
 64       0.008578185351
 65       0.002143036582
 66       0.000041452081
 67      -0.000024376992
 68       0.000137317189
 69      -0.000171671652
 70      -0.000080201126
 71       0.000022621145
 72       0.000231783963
 73      -0.000039624581
 74       0.000023425211
 75       0.000016646874
 76      -0.001593340025
 77      -0.000082533301
 78      -0.001724133017
 79      -0.000208415851
 80       0.000065046171
 81       0.000002691543
 82      -0.000027690851
 83       0.000096309571
 84       0.000016964596
 85       0.000008411899
 86       0.000070188209
 87       0.000111029977
 88      -0.000033198058
 89      -0.000038384388
 90      -0.001199074750
 91      -0.002048520120
 92       0.000060654958
 93       0.000335538333
 94       0.000041666065
 95      -0.000005168079
 96       0.000007164962
 97      -0.000001767623
 98       0.000151409630
 99       0.000012424354
100       0.000149657799
101      -0.000082993843
102      -0.000003429080
103       0.000014658223
104       0.000326230407
105       0.000082059624
106       0.000073450679
107      -0.000116685148
108       0.000034071570
109      -0.000008166042
110      -0.000000369181
111       0.000004759703
112      -0.000005444116
113      -0.000096937475
114      -0.000784682864
115      -0.000020702550
116      -0.000525108258
117      -0.000245681792
118      -0.001596577449
119       0.000642505436
120      -0.015699695731
121      -0.007472071257
122       0.000067944021
123      -0.000042845901
124      -0.000071537661
125       0.000004189582
126      -0.000077838459
127       0.000182332283
128       0.001011644653
129      -0.000013525998
130       0.000039670026
131       0.000038014743
132      -0.000002724873
133      -0.000073425735
134      -0.000000179635
135      -0.000003518921
136       0.000007607824
137      -0.000028849176
138       0.000116778321
139      -0.000001384496
140      -0.000004223116
141       0.000010982201
142      -0.000040431652
143      -0.000696944565
144      -0.000013111374
145       0.000011357954
146       0.000012668384
147      -0.000199756525
148       0.000334902768
149       0.000027763894
150      -0.000070364223
151       0.000018753727
152      -0.000129562601
153       0.000277866695
154       0.000053900964
155      -0.000025125188
156      -0.000004295116
157       0.000468052435
158      -0.001415919474
159      -0.001467038877
160      -0.000833771902
161       0.000448028611
162      -0.000019014811
163      -0.000105840965
164       0.000001351162
165      -0.000010978351
166      -0.000010906887
167       0.000002734899
168       0.000061414720
169      -0.000028888103
170      -0.000000584952
171       0.000014351654
172       0.000037296300
173      -0.000259300678
174       0.000002269205
175       0.000002102370
176       0.000006019864
177      -0.000094265040
178      -0.000388525350
179       0.000038346767
180      -0.000004218886
181      -0.000007769810
182      -0.000239861914
183       0.000292114668
184       0.000036671080
185      -0.000000588075
186      -0.000042337397
187       0.000132608491
188      -0.000252451586
189       0.000162444349
190       0.000121250226
191      -0.000032604110
 Sym=     1a
 Ene= -1.91682563121935E+01
 Spin= Alpha
 Occup= 2.000000
  1      -0.995083180114
  2      -0.030296188225
  3      -0.000157852547
  4      -0.002028764959
  5       0.000015252365
  6       0.021920506378
  7       0.005865957674
  8       0.003970258823
  9       0.000371001428
 10      -0.000007758510
 11       0.000052852718
 12       0.000040804023
 13       0.000087250996
 14       0.001275625156
 15      -0.007093081176
 16       0.000506404119
 17       0.000066737696
 18      -0.000198332338
 19      -0.000092793614
 20      -0.002609458891
 21      -0.002112803904
 22       0.000382917462
 23       0.000693177082
 24       0.000156364300
 25       0.000254503878
 26      -0.000076761805
 27      -0.000213128432
 28       0.000139534633
 29       0.000065078846
 30       0.000711162254
 31      -0.000031230086
 32       0.000042034162
 33       0.000049271068
 34      -0.005689683687
 35      -0.000166029139
 36      -0.002794617165
 37      -0.001144548831
 38       0.000031809099
 39      -0.000029442724
 40      -0.000095683002
 41       0.000178608977
 42      -0.000028845859
 43      -0.000014468876
 44       0.000104784789
 45      -0.000286878230
 46      -0.000011521626
 47       0.000070055792
 48       0.005109432408
 49      -0.001229826023
 50       0.000648645610
 51       0.000169453236
 52      -0.000053691530
 53      -0.000020756114
 54      -0.000057294986
 55       0.000118539435
 56      -0.000141058179
 57       0.000005886570
 58       0.000439837725
 59      -0.000085129212
 60       0.000231957872
 61       0.000100692950
 62      -0.001715836373
 63      -0.002313439271
 64      -0.009284781056
 65      -0.003307582179
 66      -0.000076069281
 67       0.000006439112
 68      -0.000047628999
 69       0.000082664182
 70       0.000080654033
 71       0.000023673033
 72       0.000127412158
 73       0.000029808273
 74      -0.000013415052
 75      -0.000018517882
 76      -0.000694396134
 77       0.000513291823
 78      -0.000405099897
 79      -0.000002707347
 80       0.000052780657
 81       0.000007694584
 82      -0.000013896847
 83      -0.000019568583
 84       0.000062181343
 85       0.000019672623
 86       0.000220110229
 87      -0.000102022588
 88      -0.000006396425
 89       0.000043125124
 90      -0.001287439089
 91       0.000658147492
 92       0.000826211856
 93      -0.000357363773
 94      -0.000035597615
 95       0.000014009246
 96      -0.000012715233
 97       0.000063623062
 98       0.000019733138
 99      -0.000002297352
100      -0.000014603895
101       0.000005981360
102      -0.000014195261
103      -0.000001681261
104      -0.000065412197
105      -0.000136148298
106       0.000195406707
107       0.000012438868
108      -0.000009302788
109       0.000003283642
110      -0.000005372860
111       0.000017655278
112      -0.000013904481
113      -0.000046707659
114      -0.000409544305
115       0.000448808748
116       0.000337911939
117       0.000126820015
118      -0.005092543071
119       0.011590081684
120       0.007910110550
121       0.001204031584
122       0.000164039148
123       0.000085856864
124      -0.000116610930
125      -0.000129043496
126       0.000020747100
127      -0.000006500001
128      -0.000477351562
129       0.000047752105
130      -0.000012968569
131      -0.000002990158
132       0.000003668473
133       0.000029808083
134       0.000000064386
135       0.000001390053
136      -0.000004110632
137       0.000013941151
138      -0.000051644025
139       0.000000910253
140       0.000004262648
141      -0.000006507879
142       0.000010420287
143      -0.000080580414
144      -0.000023835224
145       0.000000836744
146      -0.000014034130
147       0.000095167592
148      -0.000095671869
149      -0.000029045551
150      -0.000013700965
151       0.000012318007
152       0.000122111971
153       0.000233982915
154      -0.000043384481
155      -0.000026621630
156      -0.000028126539
157       0.000508492815
158      -0.000353277251
159      -0.000069764150
160      -0.000001964521
161       0.000137614220
162       0.000020518340
163       0.000065687803
164       0.000011506132
165      -0.000002463587
166       0.000012377136
167       0.000003828505
168       0.000034455135
169       0.000010741257
170      -0.000012934658
171      -0.000008495079
172      -0.000038382198
173       0.000053817629
174      -0.000012791696
175      -0.000000393493
176      -0.000001359014
177       0.000304139372
178      -0.000765834985
179      -0.000051916739
180       0.000007184969
181      -0.000017188204
182       0.000126837495
183      -0.000387805216
184       0.000018653031
185       0.000017036737
186      -0.000006495515
187       0.000563932906
188      -0.000307612077
189       0.001216697827
190      -0.001360143252
191       0.000054697516
 Sym=     1a
 Ene= -1.43062988265518E+01
 Spin= Alpha
 Occup= 2.000000
  1      -0.000018783519
  2      -0.000501232101
  3      -0.000130756507
  4      -0.000020909970
  5      -0.000016748327
  6       0.002822377601
  7       0.000970427528
  8       0.000721863012
  9       0.000254269862
 10      -0.000001066122
 11       0.000023539726
 12      -0.000002945616
 13      -0.000016441611
 14       0.000066480825
 15       0.000009578881
 16       0.000136165537
 17       0.000019953330
 18       0.000066705515
 19       0.000017205534
 20      -0.001485399331
 21      -0.000840335874
 22      -0.000225274169
 23       0.000183688310
 24      -0.000043204614
 25       0.000055210480
 26       0.000088164582
 27      -0.000082597064
 28       0.000055981357
 29       0.995214046949
 30       0.033504532079
 31      -0.000870053365
 32       0.001060293862
 33      -0.001652611062
 34      -0.027285234871
 35       0.000269907749
 36      -0.008013718815
 37      -0.001659142387
 38       0.000303980832
 39      -0.000361754616
 40      -0.000101584753
 41       0.001213885622
 42       0.000399461086
 43       0.000005285861
 44      -0.000113860580
 45       0.000198642450
 46      -0.000006679314
 47       0.000002253551
 48      -0.000764272997
 49      -0.008330416046
 50       0.004952261031
 51       0.001509670037
 52      -0.000041065228
 53      -0.000122268441
 54      -0.000044001769
 55       0.000177202051
 56      -0.000027793095
 57       0.000091943400
 58       0.000131891331
 59       0.000115570432
 60       0.000420321605
 61       0.000136204548
 62       0.003189017692
 63      -0.001454182392
 64      -0.015626175340
 65      -0.006127087283
 66       0.000119178524
 67       0.000006759090
 68      -0.000127326566
 69       0.000414294375
 70      -0.000022767102
 71      -0.000027479197
 72      -0.000320460727
 73       0.000087304674
 74       0.000071716884
 75       0.000030533576
 76       0.006013075515
 77      -0.004389114429
 78       0.003219248384
 79       0.000055611750
 80      -0.000066502734
 81      -0.000007537870
 82      -0.000006874175
 83      -0.000031803862
 84      -0.000177482890
 85      -0.000020417818
 86      -0.000242703382
 87       0.000075769855
 88       0.000149777534
 89       0.000018101273
 90      -0.001349553031
 91       0.001164680634
 92       0.000784460976
 93      -0.000315318201
 94      -0.000038167389
 95       0.000005077053
 96       0.000044739811
 97       0.000016282998
 98      -0.000174679290
 99      -0.000032453893
100      -0.000321171791
101       0.000051768324
102       0.000016625748
103      -0.000024672333
104       0.001426513916
105      -0.000633154828
106      -0.001157781133
107       0.000144035902
108      -0.000042055590
109       0.000006021933
110       0.000012776262
111      -0.000014049851
112       0.000086710850
113      -0.000038662580
114      -0.000612311865
115       0.000024210276
116       0.000238316194
117       0.000078927986
118       0.003727273813
119       0.005820380280
120       0.002942191391
121       0.000234779807
122      -0.000079025415
123       0.000021273860
124      -0.000065656125
125       0.000211218473
126       0.000140086177
127      -0.000016240096
128      -0.000572524308
129      -0.000009928869
130      -0.000037415560
131      -0.000003189579
132       0.000007351285
133       0.000207865322
134      -0.000001606205
135       0.000007618663
136      -0.000021084965
137       0.000074682322
138      -0.000334308179
139       0.000012901867
140       0.000015606065
141      -0.000019969521
142      -0.000215853278
143       0.001473364790
144       0.000106884434
145       0.000063246058
146      -0.000004464169
147       0.000047573659
148      -0.000109040418
149      -0.000040545684
150       0.000044664967
151       0.000010758027
152       0.000083851013
153      -0.000129076727
154      -0.000005512690
155       0.000060576883
156      -0.000000244826
157       0.000147033660
158       0.000447215929
159      -0.000037011342
160      -0.000012606070
161       0.000037349998
162      -0.000062369590
163      -0.000097656562
164      -0.000019180030
165       0.000034062012
166      -0.000019953353
167      -0.000078517375
168      -0.000153619040
169       0.000016587558
170       0.000045653061
171      -0.000003265177
172      -0.000026725687
173       0.000629162352
174       0.000024512171
175      -0.000010564548
176       0.000011644213
177      -0.000836177781
178       0.002010327853
179      -0.001921809194
180      -0.000247158448
181      -0.000365126803
182      -0.000533389533
183       0.001404211437
184       0.000948156338
185       0.000159752905
186      -0.001714962262
187      -0.000062219230
188       0.000530339554
189       0.000032884274
190       0.000012747290
191      -0.000025775924
 Sym=     1a
 Ene= -1.02743445300697E+01
 Spin= Alpha
 Occup= 2.000000
  1       0.000149170794
  2       0.001330935536
  3      -0.000345246095
  4      -0.000120516156
  5       0.000023070554
  6      -0.005081873772
  7      -0.002260686791
  8      -0.003768628116
  9      -0.001066795117
 10       0.001243478206
 11      -0.000289615892
 12      -0.000337967481
 13      -0.000381377012
 14      -0.001641505514
 15       0.000165988824
 16       0.001513176677
 17      -0.000259345392
 18       0.000258386048
 19       0.000166042721
 20      -0.006995933320
 21       0.001464440331
 22       0.005081901331
 23       0.002258640593
 24       0.000413627648
 25       0.000101901711
 26      -0.001652713954
 27       0.001557882209
 28       0.000186502070
 29      -0.000027329376
 30      -0.000438669218
 31       0.000077488373
 32      -0.000203100715
 33      -0.000086818471
 34       0.000331830139
 35       0.000507507408
 36       0.000477446038
 37       0.000206337702
 38      -0.000204460482
 39       0.000009949973
 40       0.000095741803
 41       0.000094652241
 42       0.000124818558
 43      -0.000108777551
 44      -0.000435686760
 45       0.000258468185
 46      -0.000016079904
 47      -0.000080117458
 48       0.000925089046
 49      -0.004063108890
 50      -0.002556350651
 51      -0.000539089031
 52      -0.000075535444
 53       0.000035197113
 54       0.000081867421
 55      -0.000003422704
 56       0.000246641789
 57       0.003675998017
 58      -0.002025012419
 59       0.001492774540
 60      -0.000513742160
 61      -0.000451216105
 62       0.013257719973
 63      -0.011323080662
 64       0.002348930734
 65       0.002567308608
 66       0.000495292087
 67       0.000471888148
 68      -0.000273863352
 69      -0.000574876903
 70       0.000564466067
 71      -0.000080987621
 72      -0.000369653477
 73       0.000009864793
 74      -0.000009546516
 75       0.000055749447
 76       0.001973661362
 77      -0.000896762005
 78       0.001694244476
 79       0.000021215677
 80      -0.000110168748
 81      -0.000009848834
 82       0.000040082094
 83      -0.000025118331
 84      -0.000085704350
 85      -0.000163208008
 86      -0.000531860776
 87       0.000259463646
 88       0.000083210206
 89      -0.000087851101
 90       0.001999397997
 91      -0.000627330606
 92      -0.001545794955
 93       0.000756407082
 94       0.000031192012
 95       0.000002068474
 96       0.000041168792
 97      -0.000098601977
 98      -0.000136468835
 99      -0.000040814614
100      -0.000154907405
101       0.000048727205
102       0.000007786830
103      -0.000020456912
104       0.000260354612
105       0.000002371972
106      -0.000235693508
107       0.000159154981
108      -0.000015585942
109       0.000000381585
110      -0.000002064746
111      -0.000026837307
112       0.000024727145
113       0.994997709356
114       0.036171708851
115      -0.001198677607
116       0.000423725944
117       0.000602320836
118      -0.019459954922
119      -0.012536059195
120       0.007859342581
121       0.005680784093
122      -0.001251184233
123      -0.000510280688
124       0.001297720219
125       0.000065138629
126       0.000120419198
127       0.000056643494
128       0.000752727914
129      -0.000096182650
130      -0.000031723166
131      -0.000011546842
132      -0.000000966828
133       0.000044843115
134      -0.000000300648
135       0.000002082110
136      -0.000004288555
137       0.000013831466
138      -0.000063942243
139       0.000002647182
140       0.000001660366
141      -0.000005008289
142       0.000001847078
143       0.000689634598
144       0.000020627978
145       0.000001895640
146       0.000010155700
147      -0.000257655773
148       0.000712427324
149       0.000063112268
150       0.000050405689
151       0.000018920578
152      -0.000216595098
153      -0.000358230002
154       0.000044409684
155       0.000093770137
156       0.000027655812
157      -0.000170418670
158      -0.000988686481
159       0.000091250100