[Molden Format]
[Title]
 Molden file created by orca_2mkl for BaseName=/kaggle/working/Phe-NH2-2/Phe-NH2_InterFrag

[Atoms] AU
O    1   8          2.8969917373         2.5646323740        -2.5795309749 
O    2   8          5.2022043974         2.8486109688         0.9895248544 
N    3   7          6.6337437534        -2.2882126838         0.0031180481 
N    4   7         -7.7691705832         1.5062062150        -0.8488045081 
C    5   6          2.1867306109        -2.2153013804         1.3379601179 
C    6   6          4.1270201470        -1.3126018829        -0.6555384370 
C    7   6         -0.4649595563        -1.2936668270         0.8455371716 
C    8   6         -1.3649510763         0.9422061120         1.9447266130 
C    9   6         -2.0819925400        -2.5908485447        -0.8029786494 
C   10   6          4.1836023269         1.5582436036        -0.6272227806 
C   11   6         -3.7796412405         1.8538062196         1.4275577031 
C   12   6         -4.5009175804        -1.7027660789        -1.3376445336 
C   13   6         -5.3909861484         0.5452351225        -0.2318221535 
H   14   1          2.2441159244        -4.2856154128         1.3306166421 
H   15   1          2.8494821325        -1.5770917321         3.1913600463 
H   16   1          3.4573333305        -1.9045000128        -2.5274085486 
H   17   1         -0.1521418510         1.9885399135         3.2317737294 
H   18   1         -1.4389395236        -4.3361863739        -1.6768654925 
H   19   1         -4.4395014811         3.5864942220         2.3120950427 
H   20   1         -5.7263104920        -2.7478602200        -2.6130566062 
H   21   1          7.8443835730        -1.8960302603        -1.4420764690 
H   22   1          6.4998906719        -4.2079627865         0.0561872271 
H   23   1         -9.0202354242         0.1727266378        -1.4176234128 
H   24   1         -8.5230824935         2.6366857418         0.5002180666 
H   25   1          2.9117240422         4.3971735054        -2.3835436981 
[GTO]
  1 0
s   6 1.0 
     5484.6717000000         0.8317352088
      825.2349500000         1.5308074829
      188.0469600000         2.4771490916
       52.9645000000         3.2562802462
       16.8975700000         2.7928936336
        5.7996353000         0.9549376963
s   3 1.0 
       15.5396160000        -0.6179336976
        3.5999336000        -0.2757210088
        1.0137618000         0.8142076427
p   3 1.0 
       15.5396160000         3.1169455889
        3.5999336000         2.4014372483
        1.0137618000         1.0543605133
s   1 1.0 
        0.2700058000         0.2669561389
p   1 1.0 
        0.2700058000         0.2774319373
d   1 1.0 
        0.8000000000         1.9292013661

  2 0
s   6 1.0 
     5484.6717000000         0.8317352088
      825.2349500000         1.5308074829
      188.0469600000         2.4771490916
       52.9645000000         3.2562802462
       16.8975700000         2.7928936336
        5.7996353000         0.9549376963
s   3 1.0 
       15.5396160000        -0.6179336976
        3.5999336000        -0.2757210088
        1.0137618000         0.8142076427
p   3 1.0 
       15.5396160000         3.1169455889
        3.5999336000         2.4014372483
        1.0137618000         1.0543605133
s   1 1.0 
        0.2700058000         0.2669561389
p   1 1.0 
        0.2700058000         0.2774319373
d   1 1.0 
        0.8000000000         1.9292013661

  3 0
s   6 1.0 
     4173.5110000000         0.6790079572
      627.4579000000         1.2504643275
      142.9021000000         2.0203691378
       40.2343300000         2.6442129843
       12.8202100000         2.2650039968
        4.3904370000         0.7791872309
s   3 1.0 
       11.6263580000        -0.5158738103
        2.7162800000        -0.2550239186
        0.7722180000         0.6727344163
p   3 1.0 
       11.6263580000         2.0680595460
        2.7162800000         1.6100106206
        0.7722180000         0.7644899877
s   1 1.0 
        0.2120313000         0.2226947990
p   1 1.0 
        0.2120313000         0.2050879094
d   1 1.0 
        0.8000000000         1.9292013661

  4 0
s   6 1.0 
     4173.5110000000         0.6790079572
      627.4579000000         1.2504643275
      142.9021000000         2.0203691378
       40.2343300000         2.6442129843
       12.8202100000         2.2650039968
        4.3904370000         0.7791872309
s   3 1.0 
       11.6263580000        -0.5158738103
        2.7162800000        -0.2550239186
        0.7722180000         0.6727344163
p   3 1.0 
       11.6263580000         2.0680595460
        2.7162800000         1.6100106206
        0.7722180000         0.7644899877
s   1 1.0 
        0.2120313000         0.2226947990
p   1 1.0 
        0.2120313000         0.2050879094
d   1 1.0 
        0.8000000000         1.9292013661

  5 0
s   6 1.0 
     3047.5249000000         0.5363343823
      457.3695100000         0.9894506076
      103.9486900000         1.5972822308
       29.2101550000         2.0791870615
        9.2866630000         1.7741742532
        3.1639270000         0.6125798260
s   3 1.0 
        7.8682724000        -0.3995563516
        1.8812885000        -0.1841552393
        0.5442493000         0.5163903794
p   3 1.0 
        7.8682724000         1.2960827175
        1.8812885000         0.9937536282
        0.5442493000         0.4959527138
s   1 1.0 
        0.1687144000         0.1876178721
p   1 1.0 
        0.1687144000         0.1541275509
d   1 1.0 
        0.8000000000         1.9292013661

  6 0
s   6 1.0 
     3047.5249000000         0.5363343823
      457.3695100000         0.9894506076
      103.9486900000         1.5972822308
       29.2101550000         2.0791870615
        9.2866630000         1.7741742532
        3.1639270000         0.6125798260
s   3 1.0 
        7.8682724000        -0.3995563516
        1.8812885000        -0.1841552393
        0.5442493000         0.5163903794
p   3 1.0 
        7.8682724000         1.2960827175
        1.8812885000         0.9937536282
        0.5442493000         0.4959527138
s   1 1.0 
        0.1687144000         0.1876178721
p   1 1.0 
        0.1687144000         0.1541275509
d   1 1.0 
        0.8000000000         1.9292013661

  7 0
s   6 1.0 
     3047.5249000000         0.5363343823
      457.3695100000         0.9894506076
      103.9486900000         1.5972822308
       29.2101550000         2.0791870615
        9.2866630000         1.7741742532
        3.1639270000         0.6125798260
s   3 1.0 
        7.8682724000        -0.3995563516
        1.8812885000        -0.1841552393
        0.5442493000         0.5163903794
p   3 1.0 
        7.8682724000         1.2960827175
        1.8812885000         0.9937536282
        0.5442493000         0.4959527138
s   1 1.0 
        0.1687144000         0.1876178721
p   1 1.0 
        0.1687144000         0.1541275509
d   1 1.0 
        0.8000000000         1.9292013661

  8 0
s   6 1.0 
     3047.5249000000         0.5363343823
      457.3695100000         0.9894506076
      103.9486900000         1.5972822308
       29.2101550000         2.0791870615
        9.2866630000         1.7741742532
        3.1639270000         0.6125798260
s   3 1.0 
        7.8682724000        -0.3995563516
        1.8812885000        -0.1841552393
        0.5442493000         0.5163903794
p   3 1.0 
        7.8682724000         1.2960827175
        1.8812885000         0.9937536282
        0.5442493000         0.4959527138
s   1 1.0 
        0.1687144000         0.1876178721
p   1 1.0 
        0.1687144000         0.1541275509
d   1 1.0 
        0.8000000000         1.9292013661

  9 0
s   6 1.0 
     3047.5249000000         0.5363343823
      457.3695100000         0.9894506076
      103.9486900000         1.5972822308
       29.2101550000         2.0791870615
        9.2866630000         1.7741742532
        3.1639270000         0.6125798260
s   3 1.0 
        7.8682724000        -0.3995563516
        1.8812885000        -0.1841552393
        0.5442493000         0.5163903794
p   3 1.0 
        7.8682724000         1.2960827175
        1.8812885000         0.9937536282
        0.5442493000         0.4959527138
s   1 1.0 
        0.1687144000         0.1876178721
p   1 1.0 
        0.1687144000         0.1541275509
d   1 1.0 
        0.8000000000         1.9292013661

 10 0
s   6 1.0 
     3047.5249000000         0.5363343823
      457.3695100000         0.9894506076
      103.9486900000         1.5972822308
       29.2101550000         2.0791870615
        9.2866630000         1.7741742532
        3.1639270000         0.6125798260
s   3 1.0 
        7.8682724000        -0.3995563516
        1.8812885000        -0.1841552393
        0.5442493000         0.5163903794
p   3 1.0 
        7.8682724000         1.2960827175
        1.8812885000         0.9937536282
        0.5442493000         0.4959527138
s   1 1.0 
        0.1687144000         0.1876178721
p   1 1.0 
        0.1687144000         0.1541275509
d   1 1.0 
        0.8000000000         1.9292013661

 11 0
s   6 1.0 
     3047.5249000000         0.5363343823
      457.3695100000         0.9894506076
      103.9486900000         1.5972822308
       29.2101550000         2.0791870615
        9.2866630000         1.7741742532
        3.1639270000         0.6125798260
s   3 1.0 
        7.8682724000        -0.3995563516
        1.8812885000        -0.1841552393
        0.5442493000         0.5163903794
p   3 1.0 
        7.8682724000         1.2960827175
        1.8812885000         0.9937536282
        0.5442493000         0.4959527138
s   1 1.0 
        0.1687144000         0.1876178721
p   1 1.0 
        0.1687144000         0.1541275509
d   1 1.0 
        0.8000000000         1.9292013661

 12 0
s   6 1.0 
     3047.5249000000         0.5363343823
      457.3695100000         0.9894506076
      103.9486900000         1.5972822308
       29.2101550000         2.0791870615
        9.2866630000         1.7741742532
        3.1639270000         0.6125798260
s   3 1.0 
        7.8682724000        -0.3995563516
        1.8812885000        -0.1841552393
        0.5442493000         0.5163903794
p   3 1.0 
        7.8682724000         1.2960827175
        1.8812885000         0.9937536282
        0.5442493000         0.4959527138
s   1 1.0 
        0.1687144000         0.1876178721
p   1 1.0 
        0.1687144000         0.1541275509
d   1 1.0 
        0.8000000000         1.9292013661

 13 0
s   6 1.0 
     3047.5249000000         0.5363343823
      457.3695100000         0.9894506076
      103.9486900000         1.5972822308
       29.2101550000         2.0791870615
        9.2866630000         1.7741742532
        3.1639270000         0.6125798260
s   3 1.0 
        7.8682724000        -0.3995563516
        1.8812885000        -0.1841552393
        0.5442493000         0.5163903794
p   3 1.0 
        7.8682724000         1.2960827175
        1.8812885000         0.9937536282
        0.5442493000         0.4959527138
s   1 1.0 
        0.1687144000         0.1876178721
p   1 1.0 
        0.1687144000         0.1541275509
d   1 1.0 
        0.8000000000         1.9292013661

 14 0
s   3 1.0 
       18.7311370000         0.2149354183
        2.8253937000         0.3645711272
        0.6401217000         0.4150514277
s   1 1.0 
        0.1612778000         0.1813806839
p   1 1.0 
        1.1000000000         1.6057611426

 15 0
s   3 1.0 
       18.7311370000         0.2149354183
        2.8253937000         0.3645711272
        0.6401217000         0.4150514277
s   1 1.0 
        0.1612778000         0.1813806839
p   1 1.0 
        1.1000000000         1.6057611426

 16 0
s   3 1.0 
       18.7311370000         0.2149354183
        2.8253937000         0.3645711272
        0.6401217000         0.4150514277
s   1 1.0 
        0.1612778000         0.1813806839
p   1 1.0 
        1.1000000000         1.6057611426

 17 0
s   3 1.0 
       18.7311370000         0.2149354183
        2.8253937000         0.3645711272
        0.6401217000         0.4150514277
s   1 1.0 
        0.1612778000         0.1813806839
p   1 1.0 
        1.1000000000         1.6057611426

 18 0
s   3 1.0 
       18.7311370000         0.2149354183
        2.8253937000         0.3645711272
        0.6401217000         0.4150514277
s   1 1.0 
        0.1612778000         0.1813806839
p   1 1.0 
        1.1000000000         1.6057611426

 19 0
s   3 1.0 
       18.7311370000         0.2149354183
        2.8253937000         0.3645711272
        0.6401217000         0.4150514277
s   1 1.0 
        0.1612778000         0.1813806839
p   1 1.0 
        1.1000000000         1.6057611426

 20 0
s   3 1.0 
       18.7311370000         0.2149354183
        2.8253937000         0.3645711272
        0.6401217000         0.4150514277
s   1 1.0 
        0.1612778000         0.1813806839
p   1 1.0 
        1.1000000000         1.6057611426

 21 0
s   3 1.0 
       18.7311370000         0.2149354183
        2.8253937000         0.3645711272
        0.6401217000         0.4150514277
s   1 1.0 
        0.1612778000         0.1813806839
p   1 1.0 
        1.1000000000         1.6057611426

 22 0
s   3 1.0 
       18.7311370000         0.2149354183
        2.8253937000         0.3645711272
        0.6401217000         0.4150514277
s   1 1.0 
        0.1612778000         0.1813806839
p   1 1.0 
        1.1000000000         1.6057611426

 23 0
s   3 1.0 
       18.7311370000         0.2149354183
        2.8253937000         0.3645711272
        0.6401217000         0.4150514277
s   1 1.0 
        0.1612778000         0.1813806839
p   1 1.0 
        1.1000000000         1.6057611426

 24 0
s   3 1.0 
       18.7311370000         0.2149354183
        2.8253937000         0.3645711272
        0.6401217000         0.4150514277
s   1 1.0 
        0.1612778000         0.1813806839
p   1 1.0 
        1.1000000000         1.6057611426

 25 0
s   3 1.0 
       18.7311370000         0.2149354183
        2.8253937000         0.3645711272
        0.6401217000         0.4150514277
s   1 1.0 
        0.1612778000         0.1813806839
p   1 1.0 
        1.1000000000         1.6057611426

[5D]
[7F]
[9G]
[MO]
 Sym=     1a
 Ene= -1.91827936553596E+01
 Spin= Alpha
 Occup= 2.000000
  1      -0.995104871153
  2      -0.030328177648
  3      -0.000905385508
  4      -0.001021120263
  5      -0.001510486961
  6       0.021907543688
  7       0.003622607490
  8      -0.002282482407
  9       0.005613495720
 10       0.000690668404
 11       0.000520067110
 12      -0.000406848211
 13       0.000700539259
 14      -0.000181288426
 15       0.000578641653
 16       0.000627625728
 17       0.000014337123
 18      -0.000183452771
 19      -0.000021708937
 20      -0.002832561091
 21      -0.000607897470
 22       0.002356091627
 23      -0.000634633857
 24       0.000309529805
 25       0.000165959711
 26      -0.000176879341
 27       0.000450780404
 28      -0.000069261071
 29       0.000014220204
 30       0.000265063946
 31      -0.000050654776
 32       0.000193004739
 33       0.000008975092
 34       0.000847582432
 35      -0.000720757763
 36      -0.001092675381
 37       0.000525970142
 38      -0.000027771084
 39      -0.000093974892
 40       0.000050536700
 41       0.000063377111
 42       0.000031365940
 43      -0.000002048953
 44      -0.000016198325
 45       0.000004080592
 46      -0.000005087823
 47      -0.000000112918
 48       0.000187574902
 49       0.000047952950
 50       0.000053356957
 51       0.000087547708
 52       0.000004766048
 53       0.000004211607
 54      -0.000001357189
 55       0.000004061631
 56       0.000003928633
 57      -0.000020916222
 58      -0.000171598983
 59       0.000154103972
 60       0.000034434651
 61      -0.000016253075
 62       0.001265207151
 63       0.002053237989
 64      -0.000199923893
 65      -0.000327282869
 66      -0.000057539427
 67      -0.000053273266
 68      -0.000061583730
 69       0.000074023477
 70       0.000081684018
 71       0.000067709671
 72       0.000961713057
 73      -0.000001383056
 74       0.000235231083
 75       0.000201325563
 76      -0.002909116363
 77      -0.001221582993
 78       0.000104508804
 79      -0.004563020472
 80      -0.000081055897
 81      -0.000028538102
 82      -0.000224457679
 83      -0.000074911488
 84      -0.000194033454
 85      -0.000042053034
 86      -0.000477724418
 87      -0.000143966022
 88      -0.000052797063
 89      -0.000050843090
 90       0.001650653349
 91       0.001561458948
 92       0.000386271125
 93       0.000906455926
 94      -0.000037348661
 95      -0.000049563525
 96      -0.000028048627
 97      -0.000000473517
 98      -0.000029326118
 99      -0.000017765046
100      -0.000258234911
101      -0.000110976294
102      -0.000040106181
103       0.000056702599
104       0.000351792661
105      -0.000296212962
106       0.000731828749
107      -0.000141772806
108       0.000015611824
109       0.000003762807
110       0.000021204516
111      -0.000016421502
112       0.000058914025
113      -0.000010442720
114      -0.000061941047
115       0.000025170841
116       0.000008297634
117       0.000011350057
118       0.001058035539
119      -0.000111181999
120       0.000511754211
121       0.000370636722
122       0.000005252849
123       0.000024859568
124       0.000025819871
125      -0.000000590544
126      -0.000001951342
127      -0.000033056852
128       0.000004046000
129       0.000228589231
130      -0.000335034697
131       0.000590555616
132      -0.007836210889
133       0.006411798726
134      -0.004379624778
135       0.009367912354
136       0.000221899199
137       0.000021957305
138      -0.000000868043
139       0.000382767236
140       0.000080419353
141      -0.000001119580
142       0.000003335132
143       0.000025066939
144       0.000020201601
145       0.000004261193
146      -0.000204237569
147      -0.000615166336
148      -0.000253559085
149      -0.000226591959
150      -0.000000920123
151       0.000023960777
152      -0.000011164682
153      -0.000007917286
154      -0.000012732176
155       0.000005061280
156       0.000028438769
157      -0.000012790724
158       0.000000081712
159      -0.000005675109
160      -0.000724533810
161      -0.000101576603
162      -0.000190886436
163      -0.000177321479
164       0.000008308436
165      -0.000004550371
166      -0.000001814143
167      -0.000000006361
168       0.000006803480
169      -0.000000370723
170      -0.000007397427
171      -0.000015154925
172       0.000005673607
173      -0.000000936999
174      -0.000156504002
175       0.000145928722
176      -0.000433497220
177      -0.000293672144
178      -0.000008219895
179      -0.000005936891
180      -0.000003187171
181      -0.000005816999
182      -0.000002801319
183      -0.000096245769
184      -0.000133971549
185      -0.000064052507
186       0.000006962959
187      -0.000006411258
188       0.000052359622
189      -0.000647860837
190      -0.000018760468
191      -0.000033255915
192       0.000047771013
193      -0.000084241310
194      -0.001709848151
195      -0.000032432170
196       0.000055930311
197      -0.000017218931
198      -0.000112284969
199      -0.000072144238
200      -0.000001760558
201      -0.000013277593
202       0.000034214739
203       0.000006951946
204       0.000236887110
205       0.000010320360
206       0.000008622323
207       0.000003648200
208       0.000026727812
209       0.000081768166
210       0.000029811864
211       0.000005207856
212      -0.000000493435
213       0.000006348813
214      -0.000038347476
215       0.000003570708
216      -0.000000930787
217       0.000001436463
218       0.000123730809
219       0.000415256094
220      -0.000002565770
221       0.000076635408
222       0.000037685652
223      -0.000169337236
224      -0.000636291383
225      -0.000016816019
226      -0.000044220172
227      -0.000034232276
228       0.000000586306
229       0.000018546663
230      -0.000001722291
231       0.000001095854
232      -0.000003638840
233      -0.000012248569
234      -0.000056901593
235      -0.000003460392
236       0.000000357481
237       0.000004625323
238       0.000433167570
239      -0.000406330716
240      -0.000164577124
241      -0.001696016925
242      -0.000414664170
 Sym=     1a
 Ene= -1.91203824534110E+01
 Spin= Alpha
 Occup= 2.000000
  1       0.000525822203
  2      -0.000652443718
  3      -0.000081559545
  4       0.000253132689
  5      -0.000029013417
  6       0.003614488218
  7       0.000270737680
  8      -0.002852847769
  9      -0.000074189570
 10      -0.000289863968
 11      -0.000145028790
 12      -0.000296424241
 13      -0.000290187282
 14      -0.000236409705
 15       0.995206227517
 16       0.030907437113
 17      -0.001021260155
 18      -0.001219977671
 19      -0.001617963170
 20      -0.027209930709
 21       0.003645242424
 22       0.004548225509
 23       0.005638951414
 24      -0.000079482470
 25      -0.000207767360
 26      -0.000262606036
 27       0.000013163706
 28      -0.000177335490
 29       0.000032166389
 30       0.000330319497
 31       0.000009632927
 32       0.000153009206
 33      -0.000040049290
 34       0.000147816189
 35      -0.000396217764
 36      -0.001350392665
 37       0.000592907628
 38       0.000006369360
 39      -0.000038859829
 40       0.000061355808
 41       0.000080043308
 42       0.000118818365
 43      -0.000000963456
 44      -0.000007816911
 45       0.000000356919
 46       0.000000399818
 47       0.000002640963
 48       0.000140035117
 49       0.000078705984
 50       0.000029498118
 51       0.000014605207
 52      -0.000000624272
 53       0.000001269942
 54       0.000000136040
 55       0.000008887411
 56       0.000006091370
 57       0.000100246406
 58       0.000875603502
 59       0.000083250517
 60       0.000171238837
 61       0.000010563076
 62      -0.003743204571
 63       0.001902773973
 64      -0.002960356865
 65       0.000379173004
 66      -0.000084421006
 67      -0.000020138936
 68       0.000063928283
 69       0.000018753243
 70       0.000022781822
 71      -0.000083777215
 72      -0.000817537873
 73      -0.000036624422
 74      -0.000310223729
 75       0.000139750702
 76       0.006661684688
 77      -0.002188842620
 78       0.003661466942
 79      -0.003819790164
 80       0.000083551584
 81       0.000034748747
 82      -0.000454077380
 83       0.000055212249
 84      -0.000293835757
 85      -0.000056829552
 86      -0.000408196892
 87      -0.000043319391
 88      -0.000107889926
 89      -0.000056350207
 90       0.003389437180
 91       0.003277337043
 92       0.001978992239
 93       0.002039228228
 94      -0.000100899993
 95       0.000010385320
 96       0.000052760277
 97       0.000011187332
 98      -0.000033471242
 99       0.000009943392
100       0.000071965932
101       0.000086449142
102       0.000119876459
103       0.000004126726
104      -0.001157580499
105      -0.002189555380
106       0.000913785070
107       0.000167000935
108      -0.000000116648
109       0.000042326825
110      -0.000030329625
111       0.000015318729
112       0.000063935884
113      -0.000012659045
114      -0.000071735395
115       0.000028302435
116       0.000013558105
117       0.000003468263
118       0.002151753405
119       0.000462100393
120       0.000724708802
121       0.001038144155
122       0.000012883679
123       0.000023386404
124       0.000027747113
125       0.000009088343
126      -0.000021486065
127       0.000290955576
128       0.000667558396
129       0.000072033164
130       0.000209599486
131      -0.000012561535
132       0.007468758195
133       0.007025165342
134       0.009050563303
135       0.011927317440
136      -0.000277868262
137      -0.000437861188
138      -0.000513975875
139      -0.000095772613
140      -0.000307895465
141      -0.000000081012
142      -0.000024949170
143      -0.000035567190
144       0.000005318023
145       0.000025182657
146      -0.001076319822
147      -0.000654077611
148       0.000195718513
149      -0.000484139263
150      -0.000002051828
151      -0.000013410121
152       0.000009371646
153       0.000011441651
154       0.000005900220
155       0.000002763094
156       0.000005780884
157      -0.000026416127
158       0.000004046934
159       0.000008091018
160      -0.000578439070
161       0.000113062669
162      -0.000403750644
163      -0.000398382518
164      -0.000000811836
165      -0.000002937399
166       0.000001262167
167       0.000001543559
168       0.000008006857
169      -0.000004254133
170      -0.000035112269
171      -0.000002531251
172       0.000015080301
173      -0.000013040190
174       0.000271996983
175       0.000185374931
176      -0.000588892365
177      -0.000108125204
178       0.000003340937
179      -0.000000478187
180       0.000007986185
181      -0.000006618995
182      -0.000008776586
183      -0.000106116034
184      -0.000727158201
185      -0.000049214875
186      -0.000010408556
187      -0.000083471158
188       0.000314898462
189       0.000180370823
190      -0.000071231049
191       0.000091392837
192      -0.000044046768
193      -0.000622069506
194      -0.001217900114
195       0.000042160336
196       0.000027591657
197      -0.000002235653
198       0.000230746864
199       0.000042251421
200       0.000045153121
201      -0.000037069165
202       0.000024559666
203      -0.000007087499
204       0.000295997236
205      -0.000004549604
206       0.000013741522
207      -0.000017815931
208       0.000023451735
209       0.000009489465
210       0.000002889816
211      -0.000010216919
212       0.000019505308
213      -0.000015443512
214      -0.000075488664
215      -0.000008491489
216       0.000001795104
217       0.000011314470
218       0.000308393088
219       0.000131872563
220       0.000005756425
221       0.000067086143
222       0.000012939649
223      -0.000136113644
224      -0.000362414841
225      -0.000064581940
226       0.000005959186
227      -0.000073889799
228      -0.000000996292
229       0.000020648673
230      -0.000003787466
231       0.000000835852
232      -0.000000229306
233       0.000002131150
234       0.000001609780
235      -0.000000253438
236      -0.000005026831
237       0.000000796335
238       0.000124457545
239       0.000163361062
240      -0.000106373466
241       0.000070847404
242      -0.000136787786
 Sym=     1a
 Ene= -1.43331486249505E+01
 Spin= Alpha
 Occup= 2.000000
  1      -0.000000590854
  2      -0.000009575547
  3       0.000002428557
  4       0.000000995047
  5       0.000001454381
  6       0.000063598253
  7       0.000004976434
  8      -0.000019965599
  9       0.000017281313
 10       0.000002385555
 11       0.000000602986
 12      -0.000001417586
 13       0.000002190578
 14      -0.000000814488
 15       0.000000309693
 16       0.000004143222
 17       0.000004498812
 18      -0.000001260605
 19      -0.000001536142
 20      -0.000038841420
 21      -0.000017964082
 22       0.000018494452
 23       0.000004509919
 24       0.000000795885
 25       0.000003205292
 26       0.000000080770
 27       0.000004628861
 28       0.000001766507
 29       0.000042808964
 30       0.000034039764
 31      -0.000010422295
 32       0.000001908202
 33       0.000010043423
 34      -0.000073019887
 35       0.000111853337
 36      -0.000010227628
 37      -0.000056011669
 38       0.000010862432
 39      -0.000000233992
 40       0.000000523930
 41      -0.000005674113
 42       0.000002250054
 43      -0.995180799078
 44      -0.033440677646
 45       0.000632560113
 46       0.000963369295
 47      -0.001400831896
 48       0.027594493068
 49       0.006666539366
 50      -0.003596716501
 51       0.002881438510
 52       0.000007749975
 53       0.000299958763
 54      -0.001060393890
 55       0.000328430367
 56      -0.000553743711
 57       0.000024555289
 58       0.000193684664
 59       0.000010634713
 60      -0.000005747082
 61       0.000004592708
 62      -0.001817544116
 63       0.000723178209
 64      -0.000267130572
 65       0.000167559698
 66       0.000016131475
 67      -0.000005405682
 68      -0.000000775876
 69      -0.000024627761
 70       0.000017132843
 71      -0.000005662823
 72      -0.000032999532
 73       0.000000758131
 74      -0.000006651977
 75       0.000011941547
 76       0.000296578793
 77      -0.000106275913
 78      -0.000028291715
 79       0.000027480649
 80      -0.000001943016
 81      -0.000004087401
 82      -0.000000169949
 83       0.000007985679
 84      -0.000000734685
 85       0.000027242689
 86       0.000251926943
 87      -0.000125288478
 88       0.000049544038
 89      -0.000036502652
 90      -0.002475769477
 91       0.002686369546
 92      -0.000998411998
 93       0.000636595541
 94      -0.000000929397
 95      -0.000024559892
 96      -0.000061532730
 97       0.000035485243
 98      -0.000007667562
 99       0.000002136778
100       0.000116414142
101      -0.000185109393
102      -0.000006051822
103      -0.000068962530
104       0.004645496603
105      -0.001225332908
106      -0.000807442077
107      -0.001245074346
108       0.000042146550
109       0.000013894921
110      -0.000001676252
111      -0.000012767229
112       0.000069754349
113       0.000002260884
114       0.000120992162
115      -0.000157227371
116       0.000113792098
117       0.000021815780
118       0.004665476859
119      -0.000706068602
120       0.001657966960
121       0.000694659005
122       0.000014311406
123      -0.000052533841
124       0.000002900894
125      -0.000061193959
126      -0.000004847844
127      -0.000000114976
128      -0.000008030377
129      -0.000004393238
130       0.000007947339
131      -0.000002479474
132      -0.000037640007
133       0.000077600695
134      -0.000014084858
135       0.000068275892
136      -0.000000699446
137      -0.000005287475
138       0.000000149811
139       0.000000456264