
                                 *****************
                                 * O   R   C   A *
                                 *****************

                                            #,                                       
                                            ###                                      
                                            ####                                     
                                            #####                                    
                                            ######                                   
                                           ########,                                 
                                     ,,################,,,,,                         
                               ,,#################################,,                 
                          ,,##########################################,,             
                       ,#########################################, ''#####,          
                    ,#############################################,,   '####,        
                  ,##################################################,,,,####,       
                ,###########''''           ''''###############################       
              ,#####''   ,,,,##########,,,,          '''####'''          '####       
            ,##' ,,,,###########################,,,                        '##       
           ' ,,###''''                  '''############,,,                           
         ,,##''                                '''############,,,,        ,,,,,,###''
      ,#''                                            '''#######################'''  
     '                                                          ''''####''''         
             ,#######,   #######,   ,#######,      ##                                
            ,#'     '#,  ##    ##  ,#'     '#,    #''#        ,####,    ,#,          
            ##       ##  ##   ,#'  ##            #'  '#       #'       ,# #          
            ##       ##  #######   ##           ,######,      #####,      #          
            '#,     ,#'  ##    ##  '#,     ,#' ,#      #,     #,   #      #          
             '#######'   ##     ##  '#######'  #'      '#     '####' #    #          



                #########################################################
                #                        -***-                          #
                #          Department of theory and spectroscopy        #
                #                                                       #
                #                      Frank Neese                      #
                #                                                       #
                #     Directorship, Architecture, Infrastructure        #
                #                    SHARK, DRIVERS                     #
                #        Core code/Algorithms in most modules           #
                #                                                       #
                #        Max Planck Institute fuer Kohlenforschung      #
                #                Kaiser Wilhelm Platz 1                 #
                #                 D-45470 Muelheim/Ruhr                 #
                #                      Germany                          #
                #                                                       #
                #                  All rights reserved                  #
                #                        -***-                          #
                #########################################################


                         Program Version 6.1.1  -  RELEASE   -
                                (GIT: $487d211c$)
                          ($2025-11-21 10:33:24 +0100$)
                                                                         
                                  - NO-DMRG VERSION -                    
                                                                         


 With contributions from (in alphabetic order):
[Max-Planck-Institut fuer Kohlenforschung]                               
  Daniel Aravena         : Magnetic Suceptibility                        
  Michael Atanasov       : Ab Initio Ligand Field Theory (pilot matlab implementation)
  Alexander A. Auer      : GIAO ZORA, VPT2 properties, NMR spectrum      
  Ute Becker             : All parallelization in ORCA, NUMFREQ, NUMCALC 
  Giovanni Bistoni       : ED, misc. LED, open-shell LED, HFLD           
  Dmytro Bykov           : pre 5.0 version of the SCF Hessian            
  Marcos Casanova-Páez   : Triplet and SCS-CIS(D). UHF-(DLPNO)-IP/EA/STEOM-CCSD. UHF-CVS-IP/STEOM-CCSD   
  Vijay G. Chilkuri      : MRCI spin determinant printing, contributions to CSF-ICE 
  Pauline Colinet        : FMM embedding                                 
  Dipayan Datta          : RHF DLPNO-CCSD density                        
  Achintya Kumar Dutta   : EOM-CC, STEOM-CC                              
  Nicolas Foglia         : Exact transition moments, OPA infrastructure, MCD improvements    
  Dmitry Ganyushin       : Spin-Orbit,Spin-Spin,Magnetic field MRCI      
  Miquel Garcia-Rates    : C-PCM and meta-GGA Hessian, CCSD/C-PCM, Gaussian charge scheme 
  Tiago L. C. Gouveia    : GS-ROHF, GS-ROCIS                             
  Yang Guo               : DLPNO-NEVPT2, F12-NEVPT2, CIM, IAO-localization        
  Andreas Hansen         : Spin unrestricted coupled pair/coupled cluster methods 
  Ingolf Harden          : AUTO-CI MPn and infrastructure                
  Benjamin Helmich-Paris : MC-RPA, TRAH-(SCF,CASSCF), AVAS, COSX integrals, SCF dyn. polar., MC-PDFT, srDFT 
  Lee Huntington         : MR-EOM, pCC                                   
  Robert Izsak           : Overlap fitted RIJCOSX, COSX-SCS-MP3, EOM     
  Riya Kayal             : Wick's Theorem for AUTO-CI, AUTO-CI UHF-CCSDT 
  Emily Kempfer          : AUTO-CI RHF CISDT and CCSDT, approximate NEVPT4
  Christian Kollmar      : KDIIS, OOCD, Brueckner-CCSD(T), CCSD density, CASPT2, CASPT2-K, improved NEVPT2 
  Axel Koslowski         : Symmetry handling                             
  Simone Kossmann        : meta-GGA functionals, TD-DFT gradient, OOMP2, (MP2 Hessian; deprecated post 5.0) 
  Lucas Lang             : DCDCAS, Hyperfine gauge corrections, ICE-SOC+SSC
  Marvin Lechner         : AUTO-CI (C++ implementation), FIC-MRCC        
  Spencer Leger          : CASSCF response                               
  Dagmar Lenk            : GEPOL surface, SMD, ORCA-2-JSON               
  Dimitrios Liakos       : Extrapolation schemes; Compound Job, Property file
  Dimitrios Manganas     : Further ROCIS development; embedding schemes. LFT, Crystal Embedding 
  Dimitrios Pantazis     : SARC Basis sets                               
  Anastasios Papadopoulos: AUTO-CI, single reference methods and gradients 
  Taras Petrenko         : pre 6.0 DFT Hessian and TD-DFT gradient,  ECA, NRVS 
  Petra Pikulova         : Analytic Raman intensities                    
  Peter Pinski           : DLPNO-MP2, DLPNO-MP2 Gradient                 
  Shashank Vittal Rao    : ES-AILFT, MagRelax                            
  Christoph Reimann      : Effective Core Potentials                     
  Marius Retegan         : Local ZFS, SOC                                
  Christoph Riplinger    : Optimizer, TS searches, QM/MM, DLPNO-CCSD(T), (RO)-DLPNO pert. Triples 
  Michael Roemelt        : Original ROCIS implementation, recursive CI coupling coefficients
  Masaaki Saitow         : Open-shell DLPNO-CCSD energy and density      
  Barbara Sandhoefer     : DKH picture change effects                    
  Yorick L. A. Schmerwitz: GMF and freeze-and-release deltaSCF, NEB S-IDPP initial path                    
  Kantharuban Sivalingam : CASSCF convergence/infrastructure, NEVPT2, NEVPT3, NEVPT4(SD), FIC-MRCI and CEPA variants
  Bernardo de Souza      : ESD, SOC TD-DFT                               
  Georgi L. Stoychev     : AutoAux, RI-MP2 NMR, DLPNO-MP2 response, X2C  
  Van Anh Tran           : RI-MP2 g-tensors                              
  Willem Van den Heuvel  : Paramagnetic NMR                              
  Zikuan Wang            : NOTCH, Electric field optimization            
  Frank Wennmohs         : Technical directorship and infrastructure     
  Hang Xu                : AUTO-CI-Response properties                   
                                                                         
[FACCTs GmbH]                                                            
  Markus Bursch, Nicolas Foglia, Miquel Garcia-Rates, Ingolf Harden, Hagen Neugebauer, Anastasios Papadopoulos, 
  Christoph Riplinger, Bernardo de Souza, Georgi L. Stoychev                                                    
                                                                 
  APM, various basis sets, CI-OPT, improved COSX, DLPNO-Multilevel,           
  DOCKER, DRACO, updates on ESD, Fragmentator, GOAT, IRC, LR-CPCM, L-BFGS, MBIS, meta-GGA TD-DFT gradient, ML-optimized integration grids, 
  MM, NACMEs, nearIR, NEB, NEB-TS, NL-DFT gradient (VV10), 2- and 3-layer-ONIOM, interface openCOSMO-RS, QMMM,   
  Crystal-QMMM, RESP, rigid body optimization, SF, symmetry and pop. for TD-DFT, various functionals, SOLVATOR                                   
                                                                         
[Other institutions]                                                     
  V. Asgeirsson          : NEB                                           
  Christoph Bannwarth    : sTDA-DFT, sTD-DFT, PBEh-3c, B97-3c, D3        
  Giovanni Bistoni       : ETS/NOCV, ADLD/ADEX, COVALED                  
  Martin Brehm           : Molecular dynamics                            
  Ronald Cardenas        : ETS/NOCV                                      
  Martina Colucci        : COVALED                                       
  Sebastian Ehlert       : rSCAN, r2SCAN, r2SCAN-3c, D4, dhf basis sets  
  Marvin Friede          : D4 for Fr, Ra, Ac-Lr                          
  Lars Goerigk           : TD-DFT with DH, B97 family of functionals     
  Stefan Grimme          : VdW corrections, initial TS optimization, DFT functionals, gCP, sTDA/sTD-DF 
  Waldemar Hujo          : DFT-NL                                        
  H. Jonsson             : NEB                                           
  Holger Kruse           : gCP                                           
  Marcel Mueller         : wB97X-3c, vDZP basis set                      
  Hagen Neugebauer       : wr2SCAN, Native XTB                           
  Gianluca Regni         : ADLD/ADEX                                     
  Tobias Risthaus        : pre 6.0 range-separated hybrid DFT and stability analysis
  Lukas Wittmann         : regularized MP2, r2SCAN double-hybrids, wr2SCAN        
                                                                         
We gratefully acknowledge several colleagues who have allowed us to      
interface, adapt or use parts of their codes:                            
  Ed Valeev, F. Pavosevic, A. Kumar             : LibInt (2-el integral package), F12 methods 
  Garnet Chan, S. Sharma, J. Yang, R. Olivares  : DMRG                   
  Ulf Ekstrom                                   : XCFun DFT Library      
  Mihaly Kallay                                 : mrcc  (arbitrary order and MRCC methods)
  Frank Weinhold                                : gennbo (NPA and NBO analysis)           
  Simon Mueller                                 : openCOSMO-RS                            
  Christopher J. Cramer and Donald G. Truhlar   : smd solvation model                     
  S Lehtola, MJT Oliveira, MAL Marques          : LibXC Library                           
  Liviu Ungur et al                             : ANISO software                          


 Your calculation uses the libint2 library for the computation of 2-el integrals
 For citations please refer to: http://libint.valeyev.net

 Your ORCA version has been built with support for libXC version: 7.0.0
 For citations please refer to: https://libxc.gitlab.io

 This ORCA versions uses:
   CBLAS   interface :  Fast vector & matrix operations
   LAPACKE interface :  Fast linear algebra routines
   SCALAPACK package :  Parallel linear algebra routines
   Shared memory     :  Shared parallel matrices
   BLAS/LAPACK       :  OpenBLAS 0.3.29  USE64BITINT DYNAMIC_ARCH NO_AFFINITY Zen SINGLE_THREADED
        Core in use  :  Zen
   Copyright (c) 2011-2014, The OpenBLAS Project


  ***********************************
  * Starting time: Sat Mar 28 19:51:52 2026
  * Host name:     17e9b25c3625
  * Process ID:    874
  * Working dir.:  /kaggle/working
  ***********************************

NOTE: MaxCore=3000 MB was set to SCF,MP2,MDCI,CIPSI,MRCI,RASCI and CIS
      => If you want to overwrite this, your respective input block should be placed after the MaxCore statement
Your calculation utilizes the atom-pairwise dispersion correction
with the Becke-Johnson damping scheme (D3BJ)


Warning: RI is on but no J-basis has been assigned. Assigning Def2/J (nothing to worry about!)
================================================================================

----- Orbital basis set information -----
Your calculation utilizes the basis: 6-31G(d,p)
   H-He, Li-Ne : W. J. Hehre, R. Ditchfield and J.A. Pople, J. Chem. Phys. 56, 2257 (1972).
                 Note: He and Ne are unpublished basis sets taken from the Gaussian program.
                 Note: Li and B from J. D. Dill and J. A. Pople, J. Chem. Phys. 62, 2921 (1975).
   Na - Ar     : M. M. Francl, W. J. Pietro, W. J. Hehre, J. S. Binkley, M. S. Gordon, 
                 D. J. DeFrees and J. A. Pople, J. Chem. Phys. 77, 3654 (1982).
   K - Zn      : V. A. Rassolov, J. A. Pople, M. A. Ratner, and T. L. Windus, J. Chem. Phys. 109, 1223 (1998).

----- AuxJ basis set information -----
Your calculation utilizes the auxiliary basis: def2/J
   H-Rn: F. Weigend, Phys. Chem. Chem. Phys. 8, 1057 (2006).
   Fr-Lr: K. Eichkorn, F. Weigend, O. Treutler, R. Ahlrichs; Theor. Chem. Acc. 97, 119 (1997).

================================================================================
                                        WARNINGS
                       Please study these warnings very carefully!
================================================================================


================================================================================
                                       INPUT FILE
================================================================================
NAME = /kaggle/working/Thr-2/Thr_InterFrag.inp
|  1> 
|  2> !RKS B3LYP 6-31G(d,p) TightSCF D3BJ # def2-TZVPP
|  3> 
|  4> %pal nprocs 2 end
|  5> %maxcore 3000
|  6> 
|  7> %elprop
|  8>   Polar 1      # polarizability via CP-SCF
|  9> end
| 10> 
| 11> %output
| 12>   PrintLevel Normal
| 13>   Print[ P_OrbEn ] 2
| 14> end
| 15> 
| 16> *xyz 0 1
| 17>   O     -1.821942   -1.110337    0.475144
| 18>   O      1.039293   -1.603895    0.053276
| 19>   O      1.931451    0.273218   -0.815711
| 20>   N      0.343004    1.891012    0.721515
| 21>   C     -1.365178    0.208837    0.186277
| 22>   C      0.069495    0.455818    0.737868
| 23>   C     -1.475343    0.409576   -1.317045
| 24>   C      1.111286   -0.266377   -0.091170
| 25>   H      0.101937    0.006551    1.743071
| 26>   H     -2.001179    0.946274    0.698166
| 27>   H     -1.075055    1.385842   -1.598846
| 28>   H     -2.521891    0.356048   -1.630008
| 29>   H     -0.919732   -0.368071   -1.852627
| 30>   H      1.309367    2.044986    1.000287
| 31>   H     -0.234485    2.323552    1.439216
| 32>   H     -1.800847   -1.224067    1.436806
| 33>   H      1.715920   -2.000365   -0.525918
| 34> 
| 35> *
| 36> 
| 37>                          ****END OF INPUT****
================================================================================

                       ****************************
                       * Single Point Calculation *
                       ****************************

---------------------------------
CARTESIAN COORDINATES (ANGSTROEM)
---------------------------------
  O     -1.821942   -1.110337    0.475144
  O      1.039293   -1.603895    0.053276
  O      1.931451    0.273218   -0.815711
  N      0.343004    1.891012    0.721515
  C     -1.365178    0.208837    0.186277
  C      0.069495    0.455818    0.737868
  C     -1.475343    0.409576   -1.317045
  C      1.111286   -0.266377   -0.091170
  H      0.101937    0.006551    1.743071
  H     -2.001179    0.946274    0.698166
  H     -1.075055    1.385842   -1.598846
  H     -2.521891    0.356048   -1.630008
  H     -0.919732   -0.368071   -1.852627
  H      1.309367    2.044986    1.000287
  H     -0.234485    2.323552    1.439216
  H     -1.800847   -1.224067    1.436806
  H      1.715920   -2.000365   -0.525918

----------------------------
CARTESIAN COORDINATES (A.U.)
----------------------------
  NO LB      ZA    FRAG     MASS         X           Y           Z
   0 O     8.0000    0    15.999   -3.442971   -2.098233    0.897892
   1 O     8.0000    0    15.999    1.963979   -3.030922    0.100677
   2 O     8.0000    0    15.999    3.649913    0.516307   -1.541470
   3 N     7.0000    0    14.007    0.648184    3.573495    1.363466
   4 C     6.0000    0    12.011   -2.579813    0.394645    0.352013
   5 C     6.0000    0    12.011    0.131327    0.861371    1.394368
   6 C     6.0000    0    12.011   -2.787994    0.773986   -2.488854
   7 C     6.0000    0    12.011    2.100026   -0.503380   -0.172286
   8 H     1.0000    0     1.008    0.192633    0.012380    3.293927
   9 H     1.0000    0     1.008   -3.781680    1.788199    1.319343
  10 H     1.0000    0     1.008   -2.031560    2.618862   -3.021381
  11 H     1.0000    0     1.008   -4.765683    0.672833   -3.080269
  12 H     1.0000    0     1.008   -1.738042   -0.695553   -3.500958
  13 H     1.0000    0     1.008    2.474345    3.864463    1.890268
  14 H     1.0000    0     1.008   -0.443112    4.390877    2.719724
  15 H     1.0000    0     1.008   -3.403108   -2.313151    2.715170
  16 H     1.0000    0     1.008    3.242619   -3.780142   -0.993841

--------------------------------
INTERNAL COORDINATES (ANGSTROEM)
--------------------------------
 O      0   0   0     0.000000000000     0.00000000     0.00000000
 O      1   0   0     2.933979862578     0.00000000     0.00000000
 O      2   1   0     2.252695611462   107.54848490     0.00000000
 N      3   2   1     2.739248998051    92.63611895    37.12444594
 C      1   2   3     1.425586734528    79.28456876   349.14460576
 C      4   3   2     1.461114783761    62.27102987   351.96652296
 C      5   1   2     1.520660879036   107.41328387    90.38810274
 C      3   2   1     1.220161076224    30.25697115    32.30606971
 H      6   4   3     1.101510958576   113.91174392   123.17221077
 H      5   1   2     1.100154966035   109.92322328   209.14654248
 H      7   5   1     1.092125262642   110.27574032   183.67904928
 H      7   5   1     1.093651590982   110.22848155    63.65044020
 H      7   5   1     1.095575884480   110.66141542   304.12557125
 H      4   3   2     1.017486741156    72.08414771   115.59993430
 H      4   3   2     1.017683213049   167.38011168    30.78376585
 H      1   2   3     0.968593472087    95.84091967   242.25788061
 H      2   1   3     0.974924739488   146.16607087   260.75578382

---------------------------
INTERNAL COORDINATES (A.U.)
---------------------------
 O      0   0   0     0.000000000000     0.00000000     0.00000000
 O      1   0   0     5.544418422712     0.00000000     0.00000000
 O      2   1   0     4.256977768750   107.54848490     0.00000000
 N      3   2   1     5.176430418934    92.63611895    37.12444594
 C      1   2   3     2.693968508408    79.28456876   349.14460576
 C      4   3   2     2.761106791533    62.27102987   351.96652296
 C      5   1   2     2.873632603946   107.41328387    90.38810274
 C      3   2   1     2.305770273333    30.25697115    32.30606971
 H      6   4   3     2.081554045221   113.91174392   123.17221077
 H      5   1   2     2.078991590679   109.92322328   209.14654248
 H      7   5   1     2.063817650330   110.27574032   183.67904928
 H      7   5   1     2.066701992883   110.22848155    63.65044020
 H      7   5   1     2.070338380596   110.66141542   304.12557125
 H      4   3   2     1.922771285682    72.08414771   115.59993430
 H      4   3   2     1.923142563752   167.38011168    30.78376585
 H      1   2   3     1.830376397348    95.84091967   242.25788061
 H      2   1   3     1.842340758816   146.16607087   260.75578382

---------------------
BASIS SET INFORMATION
---------------------
There are 4 groups of distinct atoms

 Group   1 Type O   : 10s4p1d contracted to 3s2p1d pattern {631/31/1}
 Group   2 Type N   : 10s4p1d contracted to 3s2p1d pattern {631/31/1}
 Group   3 Type C   : 10s4p1d contracted to 3s2p1d pattern {631/31/1}
 Group   4 Type H   : 4s1p contracted to 2s1p pattern {31/1}

Atom   0O    basis set group =>   1
Atom   1O    basis set group =>   1
Atom   2O    basis set group =>   1
Atom   3N    basis set group =>   2
Atom   4C    basis set group =>   3
Atom   5C    basis set group =>   3
Atom   6C    basis set group =>   3
Atom   7C    basis set group =>   3
Atom   8H    basis set group =>   4
Atom   9H    basis set group =>   4
Atom  10H    basis set group =>   4
Atom  11H    basis set group =>   4
Atom  12H    basis set group =>   4
Atom  13H    basis set group =>   4
Atom  14H    basis set group =>   4
Atom  15H    basis set group =>   4
Atom  16H    basis set group =>   4
---------------------------------
AUXILIARY/J BASIS SET INFORMATION
---------------------------------
There are 4 groups of distinct atoms

 Group   1 Type O   : 12s5p4d2f1g contracted to 6s4p3d1f1g pattern {711111/2111/211/2/1}
 Group   2 Type N   : 12s5p4d2f1g contracted to 6s4p3d1f1g pattern {711111/2111/211/2/1}
 Group   3 Type C   : 12s5p4d2f1g contracted to 6s4p3d1f1g pattern {711111/2111/211/2/1}
 Group   4 Type H   : 5s2p1d contracted to 3s1p1d pattern {311/2/1}

Atom   0O    basis set group =>   1
Atom   1O    basis set group =>   1
Atom   2O    basis set group =>   1
Atom   3N    basis set group =>   2
Atom   4C    basis set group =>   3
Atom   5C    basis set group =>   3
Atom   6C    basis set group =>   3
Atom   7C    basis set group =>   3
Atom   8H    basis set group =>   4
Atom   9H    basis set group =>   4
Atom  10H    basis set group =>   4
Atom  11H    basis set group =>   4
Atom  12H    basis set group =>   4
Atom  13H    basis set group =>   4
Atom  14H    basis set group =>   4
Atom  15H    basis set group =>   4
Atom  16H    basis set group =>   4


           ************************************************************
           *        Program running with 2 parallel MPI-processes     *
           *              working on a common directory               *
           ************************************************************
------------------------------------------------------------------------------
                             ORCA STARTUP CALCULATIONS
                           -- RI-GTO INTEGRALS CHOSEN --
------------------------------------------------------------------------------
------------------------------------------------------------------------------
                   ___                                                        
                  /   \      - P O W E R E D   B Y -                         
                 /     \                                                     
                 |  |  |   _    _      __       _____    __    __             
                 |  |  |  | |  | |    /  \     |  _  \  |  |  /  |          
                  \  \/   | |  | |   /    \    | | | |  |  | /  /          
                 / \  \   | |__| |  /  /\  \   | |_| |  |  |/  /          
                |  |  |   |  __  | /  /__\  \  |    /   |      \           
                |  |  |   | |  | | |   __   |  |    \   |  |\   \          
                \     /   | |  | | |  |  |  |  | |\  \  |  | \   \       
                 \___/    |_|  |_| |__|  |__|  |_| \__\ |__|  \__/        
                                                                              
                      - O R C A' S   B I G   F R I E N D -                    
                                      &                                       
                       - I N T E G R A L  F E E D E R -                       
                                                                              
 v1 FN, 2020, v2 2021, v3 2022-2024                                           
------------------------------------------------------------------------------


----------------------
SHARK INTEGRAL PACKAGE
----------------------

Number of atoms                             ...     17
Number of basis functions                   ...    157
Number of shells                            ...     75
Maximum angular momentum                    ...      2
Integral batch strategy                     ... SHARK/LIBINT Hybrid
RI-J (if used) integral strategy            ... SPLIT-RIJ (Revised 2003 algorithm where possible)
Printlevel                                  ...      1
Contraction scheme used                     ... SEGMENTED contraction
Prescreening option                         ... SCHWARTZ
   Thresh                                   ... 2.500e-11
   Tcut                                     ... 2.500e-12
   Tpresel                                  ... 2.500e-12 
Coulomb Range Separation                    ... NOT USED
Exchange Range Separation                   ... NOT USED
Multipole approximations                    ... NOT USED
Finite Nucleus Model                        ... NOT USED
CABS basis                                  ... NOT available
Auxiliary Coulomb fitting basis             ... AVAILABLE
   # of basis functions in Aux-J            ...    491
   # of shells in Aux-J                     ...    165
   Maximum angular momentum in Aux-J        ...      4
Auxiliary J/K fitting basis                 ... NOT available
Auxiliary Correlation fitting basis         ... NOT available
Auxiliary 'external' fitting basis          ... NOT available

Checking pre-screening integrals            ... done (  0.0 sec) Dimension = 75
   => SHARK Basis and OBASIS are compatible. Storing Pre-screening
Shell pair information
Shell pair cut-off parameter TPreSel        ...   2.5e-12
Total number of shell pairs                 ...      2850
Shell pairs after pre-screening             ...      2682
Total number of primitive shell pairs       ...     13890
Primitive shell pairs kept                  ...      8856
          la=0 lb=0:    841 shell pairs
          la=1 lb=0:    979 shell pairs
          la=1 lb=1:    303 shell pairs
          la=2 lb=0:    327 shell pairs
          la=2 lb=1:    196 shell pairs
          la=2 lb=2:     36 shell pairs

Checking whether 4 symmetric matrices of dimension 157 fit in memory
:Max Core in MB      =   3000.00
 MB in use           =      7.03
 MB left             =   2992.97
 MB needed           =      0.38
 Data fit in memory  = YES
Calculating RI/J V-Matrix + Cholesky decomp.... done (  0.0 sec)
Calculating Nuclear repulsion               ... done (  0.0 sec) ENN=    412.892252402870 Eh

Diagonalization of the overlap matrix:
Smallest eigenvalue                        ... 2.929e-03
Time for diagonalization                   ...    0.002 sec
Threshold for overlap eigenvalues          ... 1.000e-07
Number of eigenvalues below threshold      ... 0
Time for construction of square roots      ...    0.001 sec
Total time needed                          ...    0.004 sec

-------------------
DFT GRID GENERATION
-------------------

General Integration Accuracy     IntAcc      ... 4.388
Radial Grid Type                 RadialGrid  ... OptM3 with GC (2021)
Angular Grid (max. ang.)         AngularGrid ... 4 (Lebedev-302)
Angular grid pruning method      GridPruning ... 4 (adaptive)
Weight generation scheme         WeightScheme... mBecke (2022)
Basis function cutoff            BFCut       ... 1.0000e-11
Integration weight cutoff        WCut        ... 1.0000e-14
Partially contracted basis set               ... off
Rotationally invariant grid construction     ... off
Angular grids for H and He will be reduced by one unit

Total number of grid points                  ...    77210
Total number of batches                      ...     1214
Average number of points per batch           ...       63
Average number of grid points per atom       ...     4542

--------------------
COSX GRID GENERATION
--------------------

GRIDX 1
-------
General Integration Accuracy     IntAcc      ... 3.816
Radial Grid Type                 RadialGrid  ... OptM3 with GC (2021)
Angular Grid (max. ang.)         AngularGrid ... 1 (Lebedev-50)
Angular grid pruning method      GridPruning ... 4 (adaptive)
Weight generation scheme         WeightScheme... mBecke (2022)
Basis function cutoff            BFCut       ... 1.0000e-11
Integration weight cutoff        WCut        ... 1.0000e-14
Partially contracted basis set               ... on
Rotationally invariant grid construction     ... off
Angular grids for H and He will be reduced by one unit

Total number of grid points                  ...     9864
Total number of batches                      ...       87
Average number of points per batch           ...      113
Average number of grid points per atom       ...      580
UseSFitting                                  ... on

GRIDX 2
-------
General Integration Accuracy     IntAcc      ... 4.020
Radial Grid Type                 RadialGrid  ... OptM3 with GC (2021)
Angular Grid (max. ang.)         AngularGrid ... 2 (Lebedev-110)
Angular grid pruning method      GridPruning ... 4 (adaptive)
Weight generation scheme         WeightScheme... mBecke (2022)
Basis function cutoff            BFCut       ... 1.0000e-11
Integration weight cutoff        WCut        ... 1.0000e-14
Partially contracted basis set               ... on
Rotationally invariant grid construction     ... off
Angular grids for H and He will be reduced by one unit

Total number of grid points                  ...    21245
Total number of batches                      ...      173
Average number of points per batch           ...      122
Average number of grid points per atom       ...     1250
UseSFitting                                  ... on

GRIDX 3
-------
General Integration Accuracy     IntAcc      ... 4.338
Radial Grid Type                 RadialGrid  ... OptM3 with GC (2021)
Angular Grid (max. ang.)         AngularGrid ... 3 (Lebedev-194)
Angular grid pruning method      GridPruning ... 4 (adaptive)
Weight generation scheme         WeightScheme... mBecke (2022)
Basis function cutoff            BFCut       ... 1.0000e-11
Integration weight cutoff        WCut        ... 1.0000e-14
Partially contracted basis set               ... on
Rotationally invariant grid construction     ... off
Angular grids for H and He will be reduced by one unit

Total number of grid points                  ...    46577
Total number of batches                      ...      374
Average number of points per batch           ...      124
Average number of grid points per atom       ...     2740
UseSFitting                                  ... on
Grids setup in   1.0 sec
Initializing property integral containers    ... done (  0.0 sec)

SHARK setup successfully completed in   1.1 seconds

Maximum memory used throughout the entire STARTUP-calculation: 26.2 MB


           ************************************************************
           *        Program running with 2 parallel MPI-processes     *
           *              working on a common directory               *
           ************************************************************
-------------------------------------------------------------------------------
                                 ORCA GUESS
                   Start orbitals & Density for SCF / CASSCF
-------------------------------------------------------------------------------

------------
SCF SETTINGS
------------
Hamiltonian:
 Density Functional     Method          .... DFT(GTOs)
 Exchange Functional    Exchange        .... B88
   X-Alpha parameter    XAlpha          ....  0.666667
   Becke's b parameter  XBeta           ....  0.004200
 Correlation Functional Correlation     .... LYP
 LDA part of GGA corr.  LDAOpt          .... VWN-5
 Gradients option       PostSCFGGA      .... off
 Hybrid DFT is turned on
   Fraction HF Exchange ScalHFX         ....  0.200000
   Scaling of DF-GGA-X  ScalDFX         ....  0.720000
   Scaling of DF-GGA-C  ScalDFC         ....  0.810000
   Scaling of DF-LDA-C  ScalLDAC        ....  1.000000
   Perturbative correction              ....  0.000000
   NL short-range parameter             ....  4.800000
 RI-approximation to the Coulomb term is turned on
   Number of AuxJ basis functions       .... 491
   RIJ-COSX (HFX calculated with COS-X)).... on


General Settings:
 Integral files         IntName         .... /kaggle/working/Thr-2/Thr_InterFrag
 Hartree-Fock type      HFTyp           .... RHF
 Total Charge           Charge          ....    0
 Multiplicity           Mult            ....    1
 Number of Electrons    NEL             ....   64
 Basis Dimension        Dim             ....  157
 Nuclear Repulsion      ENuc            ....    412.8922524029 Eh

Convergence Acceleration:
 AO-DIIS                CNVDIIS         .... on
   Start iteration      DIISMaxIt       ....    12
   Startup error        DIISStart       ....  0.200000
   # of expansion vecs  DIISMaxEq       ....     5
   Bias factor          DIISBfac        ....   1.050
   Max. coefficient     DIISMaxC        ....  10.000
 MO-DIIS                CNVKDIIS        .... off
 Trust-Rad. Augm. Hess. CNVTRAH         .... auto
   Auto Start mean grad. ratio tolernc. ....  1.125000
   Auto Start start iteration           ....    50
   Auto Start num. interpolation iter.  ....    10
   Max. Number of Micro iterations      ....    24
   Max. Number of Macro iterations      .... Maxiter - #DIIS iter
   Number of Davidson start vectors     ....     2
   Converg. threshold    (grad. norm)   ....   1.000e-05
   Grad. Scal. Fac. for Micro threshold ....   0.100
   Minimum threshold for Micro iter.    ....   1.000e-02
   NR start threshold (gradient norm)   ....   1.000e-04
   Initial trust radius                 ....   0.400
   Minimum AH scaling param. (alpha)    ....   1.000
   Maximum AH scaling param. (alpha)    .... 1000.000
   Quad. conv. algorithm                .... NR
   White noise on init. David. guess    .... on
   Maximum white noise                  ....   0.010
   Pseudo random numbers                .... off
   Inactive MOs                         .... canonical
   Orbital update algorithm             .... Taylor
   Preconditioner                       .... Diag
   Full preconditioner red. dimension   ....   250
 SOSCF                 CNVSOSCF           .... on
   Start iteration     SOSCFMaxIt         ....   150
   Startup grad/error  SOSCFStart         ....  0.003300
   Hessian update      SOSCFHessUp        .... L-BFGS
   Autom. constraints  SOSCFAutoConstrain .... off
 Level Shifting         CNVShift        .... on
   Level shift para.    LevelShift      ....    0.2500
   Turn off err/grad.   ShiftErr        ....    0.0010
 Zerner damping         CNVZerner       .... off
 Static damping         CNVDamp         .... on
   Fraction old density DampFac         ....    0.7000
   Max. Damping (<1)    DampMax         ....    0.9800
   Min. Damping (>=0)   DampMin         ....    0.0000
   Turn off err/grad.   DampErr         ....    0.1000

SCF Procedure:
 Maximum # iterations   MaxIter         ....   125
 SCF integral mode      SCFMode         .... Direct
   Integral package                     .... SHARK and LIBINT hybrid scheme
 Reset frequency        DirectResetFreq ....    20
 Integral Threshold     Thresh          ....  2.500e-11 Eh
 Primitive CutOff       TCut            ....  2.500e-12 Eh

Convergence Tolerance:
 Convergence Check Mode ConvCheckMode   .... Total+1el-Energy
 Convergence forced     ConvForced      .... 0
 Energy Change          TolE            ....  1.000e-08 Eh
 1-El. energy change                    ....  1.000e-05 Eh
 Orbital Gradient       TolG            ....  1.000e-05
 Orbital Rotation angle TolX            ....  1.000e-05
 DIIS Error             TolErr          ....  5.000e-07

------------------------------
INITIAL GUESS: MODEL POTENTIAL
------------------------------
Loading Hartree-Fock densities                     ... done
Calculating cut-offs                               ... done
Initializing the effective Hamiltonian             ... done
Setting up the integral package (SHARK)            ... done
Starting the Coulomb interaction                   ... done (   0.1 sec)
Making the grid                                    ... done (   0.1 sec)
Mapping shells                                     ... done
Starting the XC term evaluation                    ... done (   0.1 sec)
  promolecular density results
     # of electrons  =     63.994895306
     EX              =    -54.412001927
     EC              =     -2.196243235
     EX+EC           =    -56.608245163
Transforming the Hamiltonian                       ... done (   0.0 sec)
Diagonalizing the Hamiltonian                      ... done (   0.0 sec)
Back transforming the eigenvectors                 ... done (   0.0 sec)
Now organizing SCF variables                       ... done
                      ------------------
                      INITIAL GUESS DONE (   0.3 sec)
                      ------------------
             **** ENERGY FILE WAS UPDATED (/kaggle/working/Thr-2/Thr_InterFrag.en.tmp) ****
Finished Guess after   0.5 sec
Maximum memory used throughout the entire GUESS-calculation: 10.5 MB


           ************************************************************
           *        Program running with 2 parallel MPI-processes     *
           *              working on a common directory               *
           ************************************************************

-------------------------------------------------------------------------------------------
                                      ORCA LEAN-SCF
                              memory conserving SCF solver
-------------------------------------------------------------------------------------------

----------------------------------------D-I-I-S--------------------------------------------
Iteration    Energy (Eh)           Delta-E    RMSDP     MaxDP     DIISErr   Damp  Time(sec)
-------------------------------------------------------------------------------------------
               ***  Starting incremental Fock matrix formation  ***
    1    -437.6876399807115945     0.00e+00  5.78e-03  9.32e-02  2.61e-01  0.700   1.9
    2    -437.8557390848380351    -1.68e-01  3.69e-03  5.46e-02  1.14e-01  0.700   1.0
                               ***Turning on AO-DIIS***
    3    -437.9141770358677945    -5.84e-02  1.34e-03  2.05e-02  3.51e-02  0.700   1.0
    4    -437.9506925728953206    -3.65e-02  1.90e-03  2.89e-02  1.41e-02  0.000   0.9
    5    -438.0330639736815215    -8.24e-02  5.04e-04  8.72e-03  7.92e-03  0.000   1.0
                              *** Initializing SOSCF ***
---------------------------------------S-O-S-C-F--------------------------------------
Iteration    Energy (Eh)           Delta-E    RMSDP     MaxDP     MaxGrad    Time(sec)
--------------------------------------------------------------------------------------
    6    -438.0335404569803472    -4.76e-04  1.57e-04  2.38e-03  2.22e-03     0.9
               *** Restarting incremental Fock matrix formation ***
    7    -438.0334952044880197     4.53e-05  1.02e-04  1.83e-03  2.68e-04     1.9
    8    -438.0334962679203841    -1.06e-06  3.37e-05  4.61e-04  2.55e-04     1.4
    9    -438.0334986835484301    -2.42e-06  1.79e-05  2.93e-04  1.22e-04     1.3
   10    -438.0334984744760618     2.09e-07  1.04e-05  1.70e-04  1.97e-04     1.2
   11    -438.0334988066867368    -3.32e-07  3.67e-06  4.95e-05  1.18e-05     1.2
   12    -438.0334988074245643    -7.38e-10  1.82e-06  3.16e-05  1.57e-05     1.1
                 **** Energy Check signals convergence ****

               *****************************************************
               *                     SUCCESS                       *
               *           SCF CONVERGED AFTER  12 CYCLES          *
               *****************************************************

Recomputing exchange energy using gridx3       ... done (    3.065 sec)
Old exchange energy                            :    -11.059218524 Eh
New exchange energy                            :    -11.059249093 Eh
Exchange energy change after final integration :     -0.000030569 Eh
Total energy after final integration           :   -438.033529383 Eh
             **** ENERGY FILE WAS UPDATED (/kaggle/working/Thr-2/Thr_InterFrag.en.tmp) ****

----------------
TOTAL SCF ENERGY
----------------

Total Energy       :       -438.03352938250191 Eh          -11919.49831 eV

Components:
Nuclear Repulsion  :        412.89225240287038 Eh           11235.36938 eV
Electronic Energy  :       -850.92575121597656 Eh          -23154.86686 eV
One Electron Energy:      -1417.33354994166211 Eh          -38567.60663 eV
Two Electron Energy:        566.40779872568555 Eh           15412.73977 eV

Virial components:
Potential Energy   :       -873.38621992015374 Eh          -23766.04729 eV
Kinetic Energy     :        435.35269053765177 Eh           11846.54898 eV
Virial Ratio       :          2.00615785523581

DFT components:
N(Alpha)           :       31.999967090790 electrons
N(Beta)            :       31.999967090790 electrons
N(Total)           :       63.999934181579 electrons
E(X)               :      -43.958946413568 Eh       
E(C)               :       -2.590684021318 Eh       
E(XC)              :      -46.549630434886 Eh       

---------------
SCF CONVERGENCE
---------------

  Last Energy change         ...    7.3783e-10  Tolerance :   1.0000e-08
  Last MAX-Density change    ...    3.1566e-05  Tolerance :   1.0000e-07
  Last RMS-Density change    ...    1.8152e-06  Tolerance :   5.0000e-09
  Last DIIS Error            ...    2.2160e-03  Tolerance :   5.0000e-07
  Last Orbital Gradient      ...    1.5717e-05  Tolerance :   1.0000e-05
  Last Orbital Rotation      ...    1.5612e-05  Tolerance :   1.0000e-05


----------------
ORBITAL ENERGIES
----------------

  NO   OCC          E(Eh)            E(eV) 
   0   2.0000     -19.188584      -522.1479 
   1   2.0000     -19.137575      -520.7599 
   2   2.0000     -19.130042      -520.5549 
   3   2.0000     -14.318269      -389.6199 
   4   2.0000     -10.310966      -280.5756 
   5   2.0000     -10.237055      -278.5644 
   6   2.0000     -10.224352      -278.2188 
   7   2.0000     -10.161236      -276.5013 
   8   2.0000      -1.100366       -29.9425 
   9   2.0000      -1.015937       -27.6450 
  10   2.0000      -1.005880       -27.3714 
  11   2.0000      -0.894983       -24.3537 
  12   2.0000      -0.758901       -20.6507 
  13   2.0000      -0.705071       -19.1860 
  14   2.0000      -0.623637       -16.9700 
  15   2.0000      -0.573726       -15.6119 
  16   2.0000      -0.528966       -14.3939 
  17   2.0000      -0.493645       -13.4328 
  18   2.0000      -0.481873       -13.1124 
  19   2.0000      -0.470432       -12.8011 
  20   2.0000      -0.446405       -12.1473 
  21   2.0000      -0.434432       -11.8215 
  22   2.0000      -0.412075       -11.2131 
  23   2.0000      -0.389078       -10.5874 
  24   2.0000      -0.375531       -10.2187 
  25   2.0000      -0.371917       -10.1204 
  26   2.0000      -0.358713        -9.7611 
  27   2.0000      -0.325433        -8.8555 
  28   2.0000      -0.313413        -8.5284 
  29   2.0000      -0.273716        -7.4482 
  30   2.0000      -0.262169        -7.1340 
  31   2.0000      -0.245953        -6.6927 
  32   0.0000       0.008521         0.2319 
  33   0.0000       0.071604         1.9484 
  34   0.0000       0.078108         2.1254 
  35   0.0000       0.090292         2.4570 
  36   0.0000       0.134740         3.6665 
  37   0.0000       0.143542         3.9060 
  38   0.0000       0.152413         4.1474 
  39   0.0000       0.173868         4.7312 
  40   0.0000       0.189109         5.1459 
  41   0.0000       0.199694         5.4340 
  42   0.0000       0.211431         5.7533 
  43   0.0000       0.228427         6.2158 
  44   0.0000       0.251045         6.8313 
  45   0.0000       0.271232         7.3806 
  46   0.0000       0.280952         7.6451 
  47   0.0000       0.335391         9.1264 
  48   0.0000       0.369678        10.0594 
  49   0.0000       0.521326        14.1860 
  50   0.0000       0.535791        14.5796 
  51   0.0000       0.547141        14.8885 
  52   0.0000       0.576997        15.7009 
  53   0.0000       0.588845        16.0233 
  54   0.0000       0.615763        16.7558 
  55   0.0000       0.631467        17.1831 
  56   0.0000       0.657855        17.9011 
  57   0.0000       0.667910        18.1748 
  58   0.0000       0.684852        18.6358 
  59   0.0000       0.716353        19.4930 
  60   0.0000       0.733570        19.9615 
  61   0.0000       0.761892        20.7321 
  62   0.0000       0.768861        20.9218 
  63   0.0000       0.788494        21.4560 
  64   0.0000       0.821857        22.3639 
  65   0.0000       0.833046        22.6683 
  66   0.0000       0.860715        23.4212 
  67   0.0000       0.864093        23.5132 
  68   0.0000       0.891041        24.2465 
  69   0.0000       0.895851        24.3774 
  70   0.0000       0.901837        24.5402 
  71   0.0000       0.912359        24.8266 
  72   0.0000       0.938390        25.5349 
  73   0.0000       0.951487        25.8913 
  74   0.0000       0.959942        26.1214 
  75   0.0000       0.987475        26.8706 
  76   0.0000       0.996726        27.1223 
  77   0.0000       1.039382        28.2830 
  78   0.0000       1.047533        28.5048 
  79   0.0000       1.094448        29.7815 
  80   0.0000       1.119271        30.4569 
  81   0.0000       1.134049        30.8590 
  82   0.0000       1.178123        32.0584 
  83   0.0000       1.219730        33.1905 
  84   0.0000       1.313561        35.7438 
  85   0.0000       1.363141        37.0930 
  86   0.0000       1.374382        37.3988 
  87   0.0000       1.399551        38.0837 
  88   0.0000       1.461586        39.7718 
  89   0.0000       1.495894        40.7053 
  90   0.0000       1.536436        41.8085 
  91   0.0000       1.561965        42.5032 
  92   0.0000       1.593010        43.3480 
  93   0.0000       1.598584        43.4997 
  94   0.0000       1.637359        44.5548 
  95   0.0000       1.702539        46.3284 
  96   0.0000       1.731743        47.1231 
  97   0.0000       1.755793        47.7776 
  98   0.0000       1.767914        48.1074 
  99   0.0000       1.796600        48.8880 
 100   0.0000       1.801130        49.0112 
 101   0.0000       1.821124        49.5553 
 102   0.0000       1.842554        50.1384 
 103   0.0000       1.880249        51.1642 
 104   0.0000       1.898980        51.6739 
 105   0.0000       1.946066        52.9551 
 106   0.0000       1.967941        53.5504 
 107   0.0000       1.986408        54.0529 
 108   0.0000       2.024625        55.0929 
 109   0.0000       2.032532        55.3080 
 110   0.0000       2.045692        55.6661 
 111   0.0000       2.080983        56.6264 
 112   0.0000       2.098756        57.1100 
 113   0.0000       2.136728        58.1433 
 114   0.0000       2.139223        58.2112 
 115   0.0000       2.199833        59.8605 
 116   0.0000       2.233666        60.7811 
 117   0.0000       2.255206        61.3673 
 118   0.0000       2.284239        62.1573 
 119   0.0000       2.309687        62.8498 
 120   0.0000       2.336111        63.5688 
 121   0.0000       2.345991        63.8377 
 122   0.0000       2.374893        64.6241 
 123   0.0000       2.395920        65.1963 
 124   0.0000       2.418010        65.7974 
 125   0.0000       2.445430        66.5435 
 126   0.0000       2.494561        67.8805 
 127   0.0000       2.529403        68.8286 
 128   0.0000       2.546417        69.2915 
 129   0.0000       2.563777        69.7639 
 130   0.0000       2.617247        71.2189 
 131   0.0000       2.644150        71.9510 
 132   0.0000       2.663790        72.4854 
 133   0.0000       2.674826        72.7857 
 134   0.0000       2.703946        73.5781 
 135   0.0000       2.732218        74.3474 
 136   0.0000       2.749051        74.8055 
 137   0.0000       2.793161        76.0058 
 138   0.0000       2.826923        76.9245 
 139   0.0000       2.852084        77.6091 
 140   0.0000       2.888128        78.5900 
 141   0.0000       2.908562        79.1460 
 142   0.0000       2.931932        79.7819 
 143   0.0000       2.944223        80.1164 
 144   0.0000       2.997126        81.5559 
 145   0.0000       3.019977        82.1777 
 146   0.0000       3.093174        84.1696 
 147   0.0000       3.180436        86.5441 
 148   0.0000       3.223975        87.7288 
 149   0.0000       3.328896        90.5839 
 150   0.0000       3.367422        91.6322 
 151   0.0000       3.392507        92.3148 
 152   0.0000       3.457914        94.0946 
 153   0.0000       3.461314        94.1871 
 154   0.0000       3.493971        95.0758 
 155   0.0000       3.508362        95.4674 
 156   0.0000       3.532584        96.1265 

                    ********************************
                    * MULLIKEN POPULATION ANALYSIS *
                    ********************************

-----------------------
MULLIKEN ATOMIC CHARGES
-----------------------
   0 O :   -0.528468
   1 O :   -0.464382
   2 O :   -0.429205
   3 N :   -0.558129
   4 C :    0.182118
   5 C :   -0.037959
   6 C :   -0.315223
   7 C :    0.530203
   8 H :    0.085200
   9 H :    0.074411
  10 H :    0.133411
  11 H :    0.109190
  12 H :    0.114727
  13 H :    0.247586
  14 H :    0.233106
  15 H :    0.300105
  16 H :    0.323310
Sum of atomic charges:    0.0000000

--------------------------------
MULLIKEN REDUCED ORBITAL CHARGES
--------------------------------
  0 O s       :     3.848585  s :     3.848585
      pz      :     1.363391  p :     4.656950
      px      :     1.856960
      py      :     1.436599
      dz2     :     0.009795  d :     0.022934
      dxz     :     0.001197
      dyz     :     0.002633
      dx2y2   :     0.004836
      dxy     :     0.004473

  1 O s       :     3.826261  s :     3.826261
      pz      :     1.670863  p :     4.614513
      px      :     1.623278
      py      :     1.320372
      dz2     :     0.002703  d :     0.023608
      dxz     :     0.004691
      dyz     :     0.004985
      dx2y2   :     0.006287
      dxy     :     0.004943

  2 O s       :     3.857942  s :     3.857942
      pz      :     1.407931  p :     4.543416
      px      :     1.436099
      py      :     1.699386
      dz2     :     0.007039  d :     0.027847
      dxz     :     0.005850
      dyz     :     0.004537
      dx2y2   :     0.005185
      dxy     :     0.005237

  3 N s       :     3.626667  s :     3.626667
      pz      :     1.594271  p :     3.901188
      px      :     1.161546
      py      :     1.145371
      dz2     :     0.004683  d :     0.030274
      dxz     :     0.008238
      dyz     :     0.005272
      dx2y2   :     0.008794
      dxy     :     0.003286

  4 C s       :     3.137289  s :     3.137289
      pz      :     0.987180  p :     2.612059
      px      :     0.889470
      py      :     0.735408
      dz2     :     0.013046  d :     0.068534
      dxz     :     0.009407
      dyz     :     0.012897
      dx2y2   :     0.016343
      dxy     :     0.016842

  5 C s       :     3.182304  s :     3.182304
      pz      :     0.994292  p :     2.799479
      px      :     0.981833
      py      :     0.823353
      dz2     :     0.009372  d :     0.056176
      dxz     :     0.007067
      dyz     :     0.015414
      dx2y2   :     0.013595
      dxy     :     0.010727

  6 C s       :     3.237317  s :     3.237317
      pz      :     0.935805  p :     3.047627
      px      :     1.052604
      py      :     1.059219
      dz2     :     0.008372  d :     0.030279
      dxz     :     0.005232
      dyz     :     0.005069
      dx2y2   :     0.006728
      dxy     :     0.004877

  7 C s       :     2.979352  s :     2.979352
      pz      :     0.805600  p :     2.367949
      px      :     0.839253
      py      :     0.723096
      dz2     :     0.019426  d :     0.122497
      dxz     :     0.014914
      dyz     :     0.025047
      dx2y2   :     0.035860
      dxy     :     0.027250

  8 H s       :     0.903787  s :     0.903787
      pz      :     0.006161  p :     0.011013
      px      :     0.002272
      py      :     0.002580

  9 H s       :     0.914696  s :     0.914696
      pz      :     0.003014  p :     0.010893
      px      :     0.003863
      py      :     0.004015

 10 H s       :     0.854983  s :     0.854983
      pz      :     0.002422  p :     0.011606
      px      :     0.003096
      py      :     0.006088

 11 H s       :     0.879361  s :     0.879361
      pz      :     0.002546  p :     0.011449
      px      :     0.006467
      py      :     0.002435

 12 H s       :     0.873871  s :     0.873871
      pz      :     0.003306  p :     0.011402
      px      :     0.003471
      py      :     0.004625

 13 H s       :     0.728569  s :     0.728569
      pz      :     0.007073  p :     0.023846
      px      :     0.011885
      py      :     0.004888

 14 H s       :     0.743077  s :     0.743077
      pz      :     0.009681  p :     0.023817
      px      :     0.007503
      py      :     0.006632

 15 H s       :     0.661212  s :     0.661212
      pz      :     0.020578  p :     0.038684
      px      :     0.010365
      py      :     0.007740

 16 H s       :     0.639024  s :     0.639024
      pz      :     0.013459  p :     0.037666
      px      :     0.015118
      py      :     0.009089


------------------------
MULLIKEN OVERLAP CHARGES
------------------------
B(  0-O ,  4-C ) :   0.5148 B(  0-O ,  5-C ) :  -0.0765 B(  0-O ,  6-C ) :  -0.1026 
B(  0-O ,  9-H ) :  -0.0781 B(  0-O , 15-H ) :   0.5740 B(  1-O ,  2-O ) :  -0.1659 
B(  1-O ,  5-C ) :  -0.1809 B(  1-O ,  7-C ) :   0.5909 B(  1-O , 16-H ) :   0.5476 
B(  2-O ,  5-C ) :  -0.1632 B(  2-O ,  7-C ) :   1.2440 B(  3-N ,  4-C ) :  -0.0797 
B(  3-N ,  5-C ) :   0.5343 B(  3-N ,  7-C ) :  -0.0858 B(  3-N ,  8-H ) :  -0.0852 
B(  3-N , 13-H ) :   0.6642 B(  3-N , 14-H ) :   0.6567 B(  4-C ,  5-C ) :   0.5969 
B(  4-C ,  6-C ) :   0.7425 B(  4-C ,  8-H ) :  -0.1084 B(  4-C ,  9-H ) :   0.7708 
B(  4-C , 10-H ) :  -0.0570 B(  4-C , 12-H ) :  -0.0588 B(  4-C , 15-H ) :  -0.0691 
B(  5-C ,  6-C ) :  -0.0869 B(  5-C ,  7-C ) :   0.5630 B(  5-C ,  8-H ) :   0.7385 
B(  5-C ,  9-H ) :  -0.1458 B(  5-C , 13-H ) :  -0.0611 B(  5-C , 14-H ) :  -0.0631 
B(  6-C ,  9-H ) :  -0.0978 B(  6-C , 10-H ) :   0.7452 B(  6-C , 11-H ) :   0.7518 
B(  6-C , 12-H ) :   0.7522 B(  7-C ,  8-H ) :  -0.1007 B( 10-H , 11-H ) :  -0.0558 
B( 11-H , 12-H ) :  -0.0604 B( 13-H , 14-H ) :  -0.0614 


                     *******************************
                     * LOEWDIN POPULATION ANALYSIS *
                     *******************************

----------------------
LOEWDIN ATOMIC CHARGES
----------------------
   0 O :   -0.252396
   1 O :   -0.147681
   2 O :   -0.233607
   3 N :   -0.253242
   4 C :    0.053607
   5 C :   -0.059352
   6 C :   -0.198766
   7 C :    0.142026
   8 H :    0.056166
   9 H :    0.049866
  10 H :    0.086482
  11 H :    0.076532
  12 H :    0.075916
  13 H :    0.132231
  14 H :    0.124359
  15 H :    0.161141
  16 H :    0.186720

-------------------------------
LOEWDIN REDUCED ORBITAL CHARGES
-------------------------------
  0 O s       :     3.505242  s :     3.505242
      pz      :     1.387701  p :     4.701768
      px      :     1.833700
      py      :     1.480366
      dz2     :     0.019446  d :     0.045386
      dxz     :     0.001226
      dyz     :     0.006604
      dx2y2   :     0.009472
      dxy     :     0.008638

  1 O s       :     3.475534  s :     3.475534
      pz      :     1.651585  p :     4.622749
      px      :     1.608280
      py      :     1.362884
      dz2     :     0.005304  d :     0.049398
      dxz     :     0.007279
      dyz     :     0.010380
      dx2y2   :     0.015591
      dxy     :     0.010844

  2 O s       :     3.562398  s :     3.562398
      pz      :     1.440031  p :     4.615765
      px      :     1.472488
      py      :     1.703246
      dz2     :     0.009712  d :     0.055444
      dxz     :     0.015329
      dyz     :     0.009566
      dx2y2   :     0.009434
      dxy     :     0.011404

  3 N s       :     3.210605  s :     3.210605
      pz      :     1.593217  p :     3.984147
      px      :     1.182741
      py      :     1.208189
      dz2     :     0.007102  d :     0.058490
      dxz     :     0.011998
      dyz     :     0.009212
      dx2y2   :     0.020193
      dxy     :     0.009984

  4 C s       :     2.878681  s :     2.878681
      pz      :     1.053043  p :     2.913709
      px      :     0.989397
      py      :     0.871269
      dz2     :     0.032157  d :     0.154003
      dxz     :     0.019630
      dyz     :     0.025962
      dx2y2   :     0.039302
      dxy     :     0.036953

  5 C s       :     2.889667  s :     2.889667
      pz      :     1.051915  p :     3.043217
      px      :     1.044630
      py      :     0.946672
      dz2     :     0.020360  d :     0.126467
      dxz     :     0.016860
      dyz     :     0.033468
      dx2y2   :     0.032931
      dxy     :     0.022849

  6 C s       :     2.915594  s :     2.915594
      pz      :     1.024179  p :     3.220946
      px      :     1.095781
      py      :     1.100987
      dz2     :     0.019925  d :     0.062226
      dxz     :     0.010631
      dyz     :     0.010319
      dx2y2   :     0.012576
      dxy     :     0.008775

  7 C s       :     2.851775  s :     2.851775
      pz      :     0.887590  p :     2.719340
      px      :     0.927898
      py      :     0.903853
      dz2     :     0.041434  d :     0.286859
      dxz     :     0.036589
      dyz     :     0.059183
      dx2y2   :     0.085535
      dxy     :     0.064117

  8 H s       :     0.903745  s :     0.903745
      pz      :     0.022519  p :     0.040089
      px      :     0.007582
      py      :     0.009989

  9 H s       :     0.912131  s :     0.912131
      pz      :     0.010112  p :     0.038002
      px      :     0.012982
      py      :     0.014909

 10 H s       :     0.873264  s :     0.873264
      pz      :     0.007882  p :     0.040254
      px      :     0.009737
      py      :     0.022635

 11 H s       :     0.884578  s :     0.884578
      pz      :     0.008202  p :     0.038890
      px      :     0.023659
      py      :     0.007029

 12 H s       :     0.884978  s :     0.884978
      pz      :     0.011305  p :     0.039106
      px      :     0.011449
      py      :     0.016352

 13 H s       :     0.789603  s :     0.789603
      pz      :     0.022223  p :     0.078166
      px      :     0.041913
      py      :     0.014030

 14 H s       :     0.798254  s :     0.798254
      pz      :     0.034810  p :     0.077388
      px      :     0.022700
      py      :     0.019878

 15 H s       :     0.721939  s :     0.721939
      pz      :     0.065383  p :     0.116920
      px      :     0.029733
      py      :     0.021804

 16 H s       :     0.699415  s :     0.699415
      pz      :     0.041225  p :     0.113866
      px      :     0.046950
      py      :     0.025690


---------------------------------
LOEWDIN BOND ORDERS (THRESH 0.050000)
---------------------------------
B(  0-O ,  4-C ) :   1.1823 B(  0-O ,  5-C ) :   0.0666 B(  0-O ,  6-C ) :   0.0531 
B(  0-O , 15-H ) :   1.0310 B(  1-O ,  2-O ) :   0.2053 B(  1-O ,  5-C ) :   0.0640 
B(  1-O ,  7-C ) :   1.3961 B(  1-O , 16-H ) :   0.9850 B(  2-O ,  5-C ) :   0.0865 
B(  2-O ,  7-C ) :   2.2087 B(  3-N ,  4-C ) :   0.0563 B(  3-N ,  5-C ) :   1.1445 
B(  3-N ,  7-C ) :   0.0513 B(  3-N , 13-H ) :   0.9812 B(  3-N , 14-H ) :   0.9859 
B(  4-C ,  5-C ) :   0.9750 B(  4-C ,  6-C ) :   1.0646 B(  4-C ,  9-H ) :   0.9060 
B(  5-C ,  7-C ) :   0.9892 B(  5-C ,  8-H ) :   0.8931 B(  6-C , 10-H ) :   0.9490 
B(  6-C , 11-H ) :   0.9551 B(  6-C , 12-H ) :   0.9523 B(  7-C , 16-H ) :   0.0571 


------------------------------------------
LOEWDIN REDUCED ORBITAL POPULATIONS PER MO
-------------------------------------------
THRESHOLD FOR PRINTING IS 0.1%%
                      0         1         2         3         4         5   
                 -19.18858 -19.13757 -19.13004 -14.31827 -10.31097 -10.23706
                   2.00000   2.00000   2.00000   2.00000   2.00000   2.00000
                  --------  --------  --------  --------  --------  --------
 0 O  s               0.0      99.9       0.0       0.0       0.0       0.0
 0 O  py              0.0       0.0       0.0       0.0       0.0       0.1
 1 O  s              99.9       0.0       0.0       0.0       0.0       0.0
 1 O  py              0.0       0.0       0.0       0.0       0.2       0.0
 2 O  s               0.0       0.0      99.8       0.0       0.1       0.0
 2 O  pz              0.0       0.0       0.0       0.0       0.1       0.0
 2 O  px              0.0       0.0       0.0       0.0       0.2       0.0
 3 N  s               0.0       0.0       0.0      99.7       0.0       0.0
 4 C  s               0.0       0.0       0.0       0.0       0.0      99.4
 5 C  px              0.0       0.0       0.0       0.0       0.1       0.1
 6 C  pz              0.0       0.0       0.0       0.0       0.0       0.1
 7 C  s               0.0       0.0       0.0       0.0      98.9       0.0

                      6         7         8         9        10        11   
                 -10.22435 -10.16124  -1.10037  -1.01594  -1.00588  -0.89498
                   2.00000   2.00000   2.00000   2.00000   2.00000   2.00000
                  --------  --------  --------  --------  --------  --------
 0 O  s               0.0       0.0       0.1      57.3       0.1       1.1
 0 O  pz              0.0       0.0       0.0       0.7       0.0       0.1
 0 O  px              0.0       0.0       0.0       0.3       0.0       0.0
 0 O  py              0.0       0.0       0.0       1.5       0.0       0.1
 1 O  s               0.0       0.0      40.8       0.0      19.2       0.0
 1 O  pz              0.0       0.0       0.5       0.0       0.1       0.0
 1 O  px              0.0       0.0       0.5       0.0       0.1       0.1
 1 O  py              0.0       0.0       2.0       0.0       0.3       0.0
 2 O  s               0.0       0.0      14.0       0.3      40.4       1.3
 2 O  pz              0.0       0.0       0.9       0.0       1.2       0.0
 2 O  px              0.0       0.0       1.1       0.0       1.6       0.0
 2 O  py              0.0       0.0       0.9       0.0       0.4       0.1
 2 O  dxz             0.0       0.0       0.0       0.0       0.1       0.0
 3 N  s               0.0       0.0       0.1       0.1       0.3      39.9
 3 N  pz              0.0       0.0       0.0       0.0       0.0       1.0
 3 N  py              0.2       0.0       0.1       0.0       0.1       1.6
 4 C  s               0.0       0.0       0.1      10.0       0.1       1.2
 4 C  pz              0.0       0.1       0.0       0.5       0.0       0.1
 4 C  px              0.1       0.0       0.1       0.6       0.0       1.8
 4 C  py              0.0       0.0       0.0       7.0       0.0       1.0
 4 C  dz2             0.0       0.0       0.0       0.1       0.0       0.0
 4 C  dyz             0.0       0.0       0.0       0.1       0.0       0.0
 4 C  dx2y2           0.0       0.0       0.0       0.3       0.0       0.1
 4 C  dxy             0.0       0.0       0.0       0.2       0.0       0.0
 5 C  s              99.4       0.0       1.1       0.8       0.4      15.6
 5 C  pz              0.0       0.0       0.5       0.0       0.2       0.0
 5 C  px              0.0       0.0       0.7       1.0       0.2       0.2
 5 C  py              0.0       0.0       0.5       0.1       0.1       5.8
 5 C  dz2             0.0       0.0       0.0       0.0       0.0       0.1
 5 C  dx2y2           0.0       0.0       0.0       0.0       0.0       0.2
 6 C  s               0.0      99.5       0.0       0.7       0.0       0.2
 6 C  pz              0.0       0.0       0.0       1.0       0.0       0.2
 6 C  py              0.0       0.0       0.0       0.2       0.0       0.0
 7 C  s               0.0       0.0      19.6       0.0       3.9       0.3
 7 C  pz              0.0       0.0       0.6       0.1       4.9       1.6
 7 C  px              0.1       0.0       1.1       0.3       5.6       2.1
 7 C  py              0.0       0.0       3.4       0.0      14.2       0.6
 7 C  dz2             0.0       0.0       0.2       0.0       0.1       0.0
 7 C  dxz             0.0       0.0       0.3       0.0       0.7       0.0
 7 C  dyz             0.0       0.0       0.2       0.0       0.2       0.1
 7 C  dx2y2           0.0       0.0       0.4       0.0       0.7       0.0
 7 C  dxy             0.0       0.0       0.1       0.0       0.3       0.1
 8 H  s               0.1       0.0       0.2       0.2       0.0       2.2
 8 H  pz              0.0       0.0       0.0       0.0       0.0       0.1
 9 H  s               0.0       0.0       0.0       1.2       0.0       0.3
11 H  s               0.0       0.1       0.0       0.1       0.0       0.0
12 H  s               0.0       0.1       0.0       0.1       0.0       0.0
13 H  s               0.0       0.0       0.1       0.0       0.1       8.8
13 H  px              0.0       0.0       0.0       0.0       0.0       0.9
14 H  s               0.0       0.0       0.0       0.0       0.0       9.3
14 H  pz              0.0       0.0       0.0       0.0       0.0       0.4
14 H  px              0.0       0.0       0.0       0.0       0.0       0.4
14 H  py              0.0       0.0       0.0       0.0       0.0       0.3
15 H  s               0.0       0.0       0.0      12.5       0.0       0.3
15 H  pz              0.0       0.0       0.0       2.1       0.0       0.1
16 H  s               0.0       0.0       8.2       0.0       3.4       0.0
16 H  pz              0.0       0.0       0.5       0.0       0.3       0.0
16 H  px              0.0       0.0       0.6       0.0       0.4       0.0
16 H  py              0.0       0.0       0.3       0.0       0.2       0.0

                     12        13        14        15        16        17   
                  -0.75890  -0.70507  -0.62364  -0.57373  -0.52897  -0.49365
                   2.00000   2.00000   2.00000   2.00000   2.00000   2.00000
                  --------  --------  --------  --------  --------  --------
 0 O  s               3.9       0.0       1.1       0.3       0.4       0.0
 0 O  pz              1.9       0.9       0.1       4.0      19.1       2.7
 0 O  px              0.3       0.0       0.3       0.2       0.5       0.9
 0 O  py              2.2       0.4       2.9       6.3       5.5       1.5
 0 O  dz2             0.1       0.0       0.1       0.2       0.2       0.0
 1 O  s               0.3       0.7       0.3       0.3       0.1       0.3
 1 O  pz              0.1       1.2       1.5       0.8       0.1       3.7
 1 O  px              0.4       1.7       2.6       2.1       0.1       0.1
 1 O  py              0.9       5.9      13.2      19.1       4.9       0.1
 1 O  dx2y2           0.0       0.1       0.2       0.2       0.0       0.0
 2 O  s               0.3       1.2       1.2       0.0       0.3       5.0
 2 O  pz              0.0       0.3       0.3       0.0       0.6       1.4
 2 O  px              0.1       0.4       0.4       0.0       0.6       8.7
 2 O  py              0.0       0.0       0.1       1.3       1.2       0.6
 2 O  dxz             0.0       0.0       0.0       0.0       0.0       0.1
 3 N  s               6.8       3.1       0.6       0.7       0.0       0.3
 3 N  pz              0.8       0.4       0.0       1.0       0.8       5.4
 3 N  px              0.4       0.0       2.0       0.1      10.7       0.0
 3 N  py              1.4       2.6       1.0       6.2       0.1       1.2
 3 N  dx2y2           0.0       0.1       0.0       0.1       0.0       0.0
 4 C  s              15.5       1.7       7.1       5.0       0.2       0.5
 4 C  pz              2.3       5.1       6.8       0.4       2.6       0.3
 4 C  px              1.1       3.1       0.3       2.6       0.5       0.0
 4 C  py              1.5       0.3       1.3       0.1      10.0       4.8
 4 C  dz2             0.1       0.1       0.1       0.0       0.1       0.0
 4 C  dx2y2           0.1       0.1       0.0       0.1       0.1       0.0
 5 C  s               6.0      10.1       2.0       4.9       0.0       0.6
 5 C  pz              1.2       0.0       0.6       0.2       2.5      22.6
 5 C  px              1.8       1.8       8.8       2.0       6.2       0.0
 5 C  py              3.5       4.9       0.3       0.1       0.3       4.9
 5 C  dx2y2           0.2       0.0       0.1       0.0       0.0       0.0
 6 C  s              16.1      14.7       9.1       3.3       0.8       0.5
 6 C  pz              1.7       0.1       3.1       3.6       1.2       2.2
 6 C  px              0.1       0.1       0.0       0.1       0.0       1.0
 6 C  py              0.0       0.0       0.0       0.2       2.8       1.1
 7 C  s               1.5       6.1       4.2       0.7       0.1       1.9
 7 C  pz              0.7       4.6       1.0       0.3       0.5       2.3
 7 C  px              2.6       4.6       0.8       0.3       0.8       1.4
 7 C  py              0.2       0.3       1.1       8.0       4.6       0.9
 7 C  dyz             0.0       0.0       0.0       0.1       0.0       0.0
 7 C  dxy             0.0       0.0       0.0       0.1       0.0       0.1
 8 H  s               1.2       3.8       0.8       2.1       0.9      15.0
 8 H  pz              0.1       0.2       0.0       0.1       0.0       0.4
 9 H  s               3.1       0.7       4.6       3.4       1.9       1.3
 9 H  px              0.1       0.0       0.1       0.0       0.1       0.0
 9 H  py              0.1       0.0       0.1       0.1       0.0       0.0
10 H  s               3.2       3.5       3.1       2.2       2.1       0.0
10 H  py              0.2       0.2       0.2       0.1       0.1       0.0
11 H  s               3.1       3.9       3.6       1.3       0.4       1.5
11 H  px              0.2       0.2       0.2       0.1       0.0       0.1
12 H  s               3.3       3.2       4.1       1.9       0.0       0.8
12 H  py              0.1       0.1       0.1       0.1       0.0       0.0
13 H  s               2.7       1.2       1.3       0.4       3.4       0.0
13 H  px              0.3       0.1       0.1       0.1       0.1       0.0
14 H  s               2.4       1.9       0.1       2.6       2.4       1.1
14 H  pz              0.1       0.1       0.0       0.1       0.1       0.0
14 H  px              0.1       0.1       0.0       0.1       0.0       0.0
15 H  s               2.2       0.3       0.6       2.9       7.5       1.2
15 H  pz              0.3       0.0       0.1       0.2       0.3       0.1
16 H  s               0.5       2.8       5.0       5.8       1.0       0.2
16 H  pz              0.0       0.1       0.2       0.2       0.0       0.0
16 H  px              0.0       0.2       0.2       0.2       0.1       0.0

                     18        19        20        21        22        23   
                  -0.48187  -0.47043  -0.44640  -0.43443  -0.41207  -0.38908
                   2.00000   2.00000   2.00000   2.00000   2.00000   2.00000
                  --------  --------  --------  --------  --------  --------
 0 O  s               0.4       0.4       2.1       0.1       0.0       1.2
 0 O  pz              2.4       3.3       6.8       0.2       0.0       1.6
 0 O  px              3.4       0.1       2.8       0.1       1.8       4.3
 0 O  py              0.8       0.4       0.5       0.0       1.4       9.9
 1 O  s               0.0       4.9       1.4       1.0       0.1       2.3
 1 O  pz              2.1       7.8       7.7       4.7      11.9       9.7
 1 O  px              4.2      15.1       0.7       0.8      15.9       3.2
 1 O  py              0.1       2.4       0.1       9.1       0.3       0.8
 2 O  s               0.7       8.1       1.1       1.6       0.0       1.3
 2 O  pz              5.1       6.2       0.0       7.8       6.6       5.4
 2 O  px              0.2       4.5       2.6       6.9       7.6       3.0
 2 O  py              0.0      12.4       1.6       0.9       0.0       0.7
 2 O  dz2             0.1       0.0       0.0       0.0       0.2       0.0
 2 O  dxz             0.0       0.1       0.0       0.2       0.0       0.0
 2 O  dyz             0.0       0.2       0.0       0.0       0.0       0.0
 2 O  dx2y2           0.0       0.0       0.0       0.1       0.1       0.0
 2 O  dxy             0.0       0.1       0.0       0.0       0.0       0.0
 3 N  s               0.2       0.1       0.1       0.1       0.0       0.2
 3 N  pz              0.1       1.1       1.1       3.8       0.2       1.5
 3 N  px             10.0       5.3      15.9       8.6       0.0       0.1
 3 N  py              0.9       0.9      12.4      13.3       1.1       3.0
 3 N  dz2             0.0       0.0       0.0       0.1       0.0       0.0
 3 N  dxz             0.1       0.1       0.1       0.2       0.0       0.0
 3 N  dyz             0.0       0.0       0.0       0.1       0.0       0.0
 3 N  dx2y2           0.0       0.1       0.4       0.0       0.0       0.0
 3 N  dxy             0.0       0.0       0.0       0.2       0.0       0.0
 4 C  s               0.5       0.5       0.5       0.0       0.5       0.0
 4 C  pz              1.3       0.0       1.7       0.0       2.6      10.0
 4 C  px             14.2       0.1       2.9       0.9       7.1       0.2
 4 C  py              4.9       1.8       0.1       0.1       0.0       2.2
 4 C  dxy             0.1       0.1       0.1       0.1       0.0       0.0
 5 C  s               0.1       0.5       0.1       0.5       0.1       0.4
 5 C  pz              2.9       3.3       0.2       0.6       1.7       0.0
 5 C  px              4.6       0.1       1.8       0.9       1.1       1.9
 5 C  py              0.0       0.6      12.3       5.6       0.2       4.2
 5 C  dz2             0.0       0.0       0.1       0.0       0.0       0.1
 5 C  dxz             0.0       0.0       0.0       0.2       0.1       0.0
 5 C  dx2y2           0.1       0.0       0.4       0.1       0.1       0.0
 5 C  dxy             0.0       0.0       0.1       0.4       0.0       0.2
 6 C  pz              0.2       0.6       0.4       0.0       2.2      12.6
 6 C  px              5.9       0.3       2.1       0.5       8.9       1.6
 6 C  py              2.1       0.9       0.0       0.2       0.3       1.1
 6 C  dz2             0.0       0.0       0.0       0.0       0.1       0.1
 7 C  s               0.2       1.5       0.2       1.8       0.0       0.2
 7 C  pz              5.8       0.8       2.2       1.9       8.6       0.8
 7 C  px              4.5       4.1       0.5       0.5       7.9       3.3
 7 C  py              0.2       0.2       0.0       9.2       0.0       0.2
 7 C  dz2             0.0       0.0       0.0       0.0       0.1       0.0
 7 C  dyz             0.0       0.2       0.1       0.1       0.1       0.3
 7 C  dx2y2           0.0       0.0       0.1       0.1       0.1       0.0
 7 C  dxy             0.0       0.2       0.0       0.1       0.1       0.2
 8 H  s               0.8       1.3       1.5       0.0       0.7       1.0
 9 H  s               8.5       0.9       0.0       0.7       1.9       0.0
 9 H  py              0.2       0.0       0.0       0.0       0.1       0.0
10 H  s               0.0       0.1       0.2       0.0       0.7       0.2
11 H  s               1.8       0.4       0.4       0.2       5.7       0.0
12 H  s               2.1       0.3       0.7       0.3       0.0       5.5
12 H  py              0.0       0.0       0.0       0.0       0.0       0.1
13 H  s               2.9       3.0      10.2       1.8       0.1       0.0
13 H  px              0.0       0.1       0.3       0.0       0.0       0.0
13 H  py              0.0       0.0       0.0       0.2       0.0       0.0
14 H  s               3.5       0.7       0.0      12.1       0.0       1.4
14 H  pz              0.1       0.0       0.0       0.2       0.0       0.0
14 H  px              0.0       0.0       0.1       0.1       0.0       0.0
14 H  py              0.0       0.1       0.2       0.0       0.0       0.0
15 H  s               0.5       1.1       1.2       0.0       0.1       0.0
15 H  py              0.0       0.0       0.0       0.0       0.0       0.2
16 H  s               0.0       1.7       1.1       0.0       0.0       2.1
16 H  pz              0.0       0.0       0.0       0.1       0.2       0.0
16 H  px              0.0       0.0       0.0       0.0       0.2       0.0
16 H  py              0.0       0.2       0.0       0.2       0.0       0.1

                     24        25        26        27        28        29   
                  -0.37553  -0.37192  -0.35871  -0.32543  -0.31341  -0.27372
                   2.00000   2.00000   2.00000   2.00000   2.00000   2.00000
                  --------  --------  --------  --------  --------  --------
 0 O  s               0.9       1.0       0.1       4.8       0.0       0.0
 0 O  pz              2.6       4.3       0.2      18.1       0.0       0.2
 0 O  px              0.1       0.7      10.0       3.1       1.7      29.9
 0 O  py             13.2       1.3       0.9      16.1       0.3       4.8
 0 O  dz2             0.0       0.1       0.0       0.2       0.0       0.0
 0 O  dyz             0.0       0.0       0.0       0.1       0.0       0.0
 1 O  s               1.7       0.0       0.0       0.0       0.0       0.0
 1 O  pz              2.1       0.1       0.4       0.3      26.3       0.4
 1 O  px             10.7       0.5       0.0       0.7      17.4       3.3
 1 O  py              2.0       0.0       0.0       0.0       0.0       4.3
 2 O  s               1.4       0.0       0.1       0.0       0.0       0.0
 2 O  pz              2.3       0.1       0.8       0.2      26.8       0.1
 2 O  px              5.8       0.6       0.0       0.0      17.6       8.7
 2 O  py              5.2       0.1       1.0       0.2       0.8      32.7
 2 O  dz2             0.0       0.0       0.0       0.0       0.1       0.0
 3 N  s               0.2       0.0       0.3       0.0       0.0       0.4
 3 N  pz              0.9       0.1       1.0       1.2       0.1       1.7
 3 N  px              2.4       0.0       0.1       0.7       0.1       0.0
 3 N  py              0.8       0.0       0.1       2.4       0.1       1.3
 4 C  s               0.2       0.3       0.0       0.2       0.0       0.0
 4 C  pz              5.9       0.7       0.1      11.4       0.1       0.0
 4 C  px              0.2       0.0       6.8       1.1       0.0       0.4
[...]
  BVA  - Mayer's bonded valence
  FA   - Mayer's free valence

  ATOM       NA         ZA         QA         VA         BVA        FA
  0 O      8.5285     8.0000    -0.5285     1.8919     1.8919     0.0000
  1 O      8.4644     8.0000    -0.4644     2.0316     2.0316     0.0000
  2 O      8.4292     8.0000    -0.4292     2.0947     2.0947     0.0000
  3 N      7.5581     7.0000    -0.5581     2.8466     2.8466     0.0000
  4 C      5.8179     6.0000     0.1821     3.8622     3.8622    -0.0000
  5 C      6.0380     6.0000    -0.0380     3.8141     3.8141    -0.0000
  6 C      6.3152     6.0000    -0.3152     3.8756     3.8756    -0.0000
  7 C      5.4698     6.0000     0.5302     3.9774     3.9774     0.0000
  8 H      0.9148     1.0000     0.0852     0.9531     0.9531    -0.0000
  9 H      0.9256     1.0000     0.0744     0.9480     0.9480     0.0000
 10 H      0.8666     1.0000     0.1334     0.9604     0.9604    -0.0000
 11 H      0.8908     1.0000     0.1092     0.9578     0.9578    -0.0000
 12 H      0.8853     1.0000     0.1147     0.9627     0.9627    -0.0000
 13 H      0.7524     1.0000     0.2476     0.9229     0.9229     0.0000
 14 H      0.7669     1.0000     0.2331     0.9228     0.9228     0.0000
 15 H      0.6999     1.0000     0.3001     0.9093     0.9093    -0.0000
 16 H      0.6767     1.0000     0.3233     0.9134     0.9134     0.0000

  Mayer bond orders larger than 0.100000
B(  0-O ,  4-C ) :   0.9514 B(  0-O , 15-H ) :   0.8800 B(  1-O ,  7-C ) :   1.0925 
B(  1-O , 16-H ) :   0.8519 B(  2-O ,  7-C ) :   1.9221 B(  3-N ,  5-C ) :   1.0006 
B(  3-N , 13-H ) :   0.9002 B(  3-N , 14-H ) :   0.9065 B(  4-C ,  5-C ) :   0.9258 
B(  4-C ,  6-C ) :   1.0147 B(  4-C ,  9-H ) :   0.9376 B(  5-C ,  7-C ) :   0.9324 
B(  5-C ,  8-H ) :   0.9257 B(  6-C , 10-H ) :   0.9482 B(  6-C , 11-H ) :   0.9595 
B(  6-C , 12-H ) :   0.9542 

-------
TIMINGS
-------

Total SCF time: 0 days 0 hours 0 min 19 sec 

Total time                  ....      19.322 sec
Sum of individual times     ....      18.345 sec  ( 94.9%)

SCF preparation             ....       0.308 sec  (  1.6%)
Fock matrix formation       ....      17.803 sec  ( 92.1%)
  Startup                   ....       0.003 sec  (  0.0% of F)
  Split-RI-J                ....       1.583 sec  (  8.9% of F)
  Chain of spheres X        ....      14.217 sec  ( 79.9% of F)
  XC integration            ....       2.891 sec  ( 16.2% of F)
    XC Preparation          ....       0.000 sec  (  0.0% of XC)
    Basis function eval.    ....       1.078 sec  ( 37.3% of XC)
    Density eval.           ....       0.607 sec  ( 21.0% of XC)
    XC-Functional eval.     ....       0.170 sec  (  5.9% of XC)
    XC-Potential eval.      ....       0.723 sec  ( 25.0% of XC)
Diagonalization             ....       0.000 sec  (  0.0%)
Density matrix formation    ....       0.019 sec  (  0.1%)
Total Energy calculation    ....       0.010 sec  (  0.0%)
Population analysis         ....       0.089 sec  (  0.5%)
Orbital Transformation      ....       0.013 sec  (  0.1%)
Orbital Orthonormalization  ....       0.000 sec  (  0.0%)
DIIS solution               ....       0.061 sec  (  0.3%)
  MO trafo                  ....       0.000 sec  (  0.0 % of DIIS)
  Orb grad                  ....       0.000 sec  (  0.0 % of DIIS)
  Energy W gradient         ....       0.000 sec  (  0.0 % of DIIS)
  DIIS error                ....       0.013 sec  ( 22.0 % of DIIS)
  DIIS work                 ....       0.038 sec  ( 63.2 % of DIIS)
  Form Q                    ....       0.000 sec  (  0.0 % of DIIS)
  Form QpQm                 ....       0.000 sec  (  0.0 % of DIIS)
  Exp/Cayley                ....       0.000 sec  (  0.0 % of DIIS)
  Orb update                ....       0.000 sec  (  0.0 % of DIIS)
  Wake-sleep                ....       0.003 sec  (  4.2 % of DIIS)
SOSCF solution              ....       0.043 sec  (  0.2%)
  MO trafo                  ....       0.015 sec  ( 34.8 % of SOSCF)
  Orb grad                  ....       0.002 sec  (  4.0 % of SOSCF)
  Rot update                ....       0.007 sec  ( 16.8 % of SOSCF)
  Step                      ....       0.016 sec  ( 37.5 % of SOSCF)
Finished LeanSCF after  19.3 sec

Maximum memory used throughout the entire LEANSCF-calculation: 17.0 MB


-------------------------------------------------------------------------------
                          DFT DISPERSION CORRECTION                            
                                                                               
                              DFTD3 V3.1  Rev 1                                
                          USING Becke-Johnson damping                          
-------------------------------------------------------------------------------
The B3LYP functional is recognized
Active option DFTDOPT                   ...         4   

molecular C6(AA) [au] = 2247.381064 


            DFT-D V3
 parameters
 s6 scaling factor         :     1.0000 
 a1 scaling factor         :     0.3981 
 s8 scaling factor         :     1.9889 
 a2 scaling factor         :     4.4211 
 ad hoc parameters k1-k3   :    16.0000     1.3333    -4.0000 

 Edisp/kcal,au: -15.427028376593  -0.024584531977 
 E6   /kcal   :  -7.552195808 
 E8   /kcal   :  -7.874832568 
 % E8         :  51.045686675 

-------------------------   ----------------
Dispersion correction           -0.024584532
-------------------------   ----------------


-------------------------   --------------------
FINAL SINGLE POINT ENERGY      -438.058113914479
-------------------------   --------------------



           ************************************************************
           *        Program running with 2 parallel MPI-processes     *
           *              working on a common directory               *
           ************************************************************
------------------------------------------------------------------------------
                            ORCA SCF RESPONSE CALCULATION
------------------------------------------------------------------------------

GBWName                                 ... /kaggle/working/Thr-2/Thr_InterFrag.gbw
Number of atoms                         ...     17
Number of basis functions               ...    157
Max core memory                         ...   3000 MB

Electric field perturbation             ... YES
Quadrupolar field perturbation          ...  NO
Magnetic field perturbation (no GIAO)   ...  NO
Magnetic field perturbation (with GIAO) ...  NO
Linear momentum (velocity) perturbation ...  NO
Spin-orbit coupling perturbation        ...  NO
Choice of electric origin               ... Center of mass
Position of electric origin             ...    -0.035224     0.010078     0.006529
Choice of magnetic origin               ... GIAO
Position of magnetic origin             ...     0.000000     0.000000     0.000000
Nuclear geometric perturbations         ...  NO (  51 perturbations)
Nucleus-orbit perturbations             ...  NO (   0 perturbations)
Spin-dipole/Fermi contact perturbations ...  NO (   0 perturbations)

Total number of real perturbations      ...      3
Total number of imaginary perturbations ...      0
Total number of triplet perturbations   ...      0
Total number of SOC perturbations       ...      0

Using XC Grid                  ... (/kaggle/working/Thr-2/Thr_InterFrag.grid_cpscf.tmp) 
Recalculating density on grid  ... (/kaggle/working/Thr-2/Thr_InterFrag.grho_cpscf0.tmp) done
Calculating the xc-kernel      ... (/kaggle/working/Thr-2/Thr_InterFrag.fxc_cpscf0.tmp) done

                                **********************
                                * REAL PERTURBATIONS *
                                **********************



-------------------
SHARK CP-SCF DRIVER
-------------------

Dimension of the orbital basis          ...    157
Dimension of the CPSCF-problem          ...   4000
Number of operators                     ...      1
Max. number of iterations               ...    128
Convergence Tolerance                   ... 1.0e-04
Number of perturbations                 ...      3
Perturbation type                       ... REAL

----------------------------
POPLE LINEAR EQUATION SOLVER
----------------------------

  ITERATION   0:   ||err||_max =   8.6081e+00 (   0.8 sec   0/  3 done)
  ITERATION   1:   ||err||_max =   8.6176e-01 (   0.7 sec   0/  3 done)
  ITERATION   2:   ||err||_max =   2.7977e-01 (   0.7 sec   0/  3 done)
  ITERATION   3:   ||err||_max =   5.6792e-02 (   0.7 sec   0/  3 done)
  ITERATION   4:   ||err||_max =   2.0704e-02 (   0.8 sec   0/  3 done)
  ITERATION   5:   ||err||_max =   5.1237e-03 (   0.7 sec   0/  3 done)
  ITERATION   6:   ||err||_max =   1.4960e-03 (   0.8 sec   0/  3 done)
  ITERATION   7:   ||err||_max =   3.6964e-04 (   0.7 sec   0/  3 done)
  ITERATION   8:   ||err||_max =   1.1501e-04 (   0.8 sec   1/  3 done)
  ITERATION   9:   ||err||_max =   3.4464e-05 (   0.7 sec   3/  3 done)

CP-SCF equations solved in   7.5 sec
Response densities calculated in   0.0 sec

Maximum memory used throughout the entire SCFRESP-calculation: 18.1 MB


           ************************************************************
           *        Program running with 2 parallel MPI-processes     *
           *              working on a common directory               *
           ************************************************************

------------------------------------------------------------------------------
                              ORCA PROPERTY CALCULATIONS
------------------------------------------------------------------------------

GBWName                                 ... /kaggle/working/Thr-2/Thr_InterFrag.gbw
Number of atoms                         ...     17
Number of basis functions               ...    157
Max core memory                         ...   3000 MB

Electric properties:
Dipole moment                           ... YES
Quadrupole moment                       ...  NO
Static polarizability (Dipole/Dipole)   ... YES
Static polarizability (Dipole/Quad.)    ...  NO
Static polarizability (Quad./Quad.)     ...  NO
Static polarizability (Velocity)        ...  NO
Static hyperpolarizability              ...  NO

Atomic electric properties:
Dipole moment                           ...  NO
Quadrupole moment                       ...  NO
Static polarizability                   ...  NO

Choice of electric origin               ... Center of mass
Position of electric origin             ...    -0.035224     0.010078     0.006529

General magnetic properties:
Magnetizability                         ...  NO

EPR properties:
g-Tensor (aka g-matrix)                 ...  NO
Zero-Field splitting spin-orbit         ...  NO
Zero-field splitting spin-spin          ...  NO
Hyperfine couplings                     ...  NO (   0 nuclei)
Quadrupole couplings                    ...  NO (   0 nuclei)
Contact density                         ...  NO (   0 nuclei)

NMR properties:
Chemical shifts                         ...  NO (   0 nuclei)
Spin-rotation constants                 ...  NO (   0 nuclei)
Spin-spin couplings                     ...  NO (   0 nuclei,    0 pairs)

Choice of magnetic origin               ... GIAO
Position of magnetic origin             ...     0.000000     0.000000     0.000000

Properties with geometric perturbations:
SCF Hessian                             ...  NO
IR spectrum                             ...  NO
VCD spectrum                            ...  NO
X-ray spectroscopy properties:
SCF XES/XAS/RIXS spectra                ...  NO

SCF SOC stabilization energy            ...  NO
Diagonal Born-Oppenheimer correction    ...  NO

-------------
DIPOLE MOMENT
-------------

Method             : SCF
Type of density    : Electron Density
Multiplicity       :   1
Irrep              :   0
Energy             :  -438.0335293825019107 Eh
Basis              : AO
                                X                 Y                 Z
Electronic contribution:      4.796166579      -3.281047628       0.540763964
Nuclear contribution   :     -4.913317420       3.185192033       0.636622863
                        -----------------------------------------
Total Dipole Moment    :     -0.117150841      -0.095855595       1.177386827
                        -----------------------------------------
Magnitude (a.u.)       :      1.187077232
Magnitude (Debye)      :      3.017310534



--------------------
Rotational spectrum 
--------------------
 
Rotational constants in cm-1:             0.083327             0.059702             0.047669 
Rotational constants in MHz :          2498.071151          1789.827711          1429.071990 

Dipole components along the rotational axes: 
x,y,z [a.u.] :     0.206866     0.047164     1.167962 
x,y,z [Debye]:     0.525811     0.119881     2.968723 

 

Dipole moment calculation done in   0.0 sec 


---------------------------------------------------
STATIC POLARIZABILITY TENSOR (Dipole/Dipole)
---------------------------------------------------

Method             : SCF
Type of density    : Electron Density
Type of derivative : Electric Field (Direction=X)
Multiplicity       :   1
Irrep              :   0
Basis              : AO

The raw cartesian tensor (atomic units):
      59.496611974         0.603950867        -3.903268810  
       0.603950867        60.910741204         0.585710264  
      -3.903268810         0.585710264        53.621855555  
diagonalized tensor: 
      51.606414174        60.848790749        61.574003810  

Orientation: 
       0.447024545         0.343478870         0.825948741  
      -0.085071885        -0.902831747         0.421494497  
       0.890467198        -0.258683402        -0.374367556  

Isotropic polarizability :  58.00974


Polarizability tensor calculation done in   0.0 sec 

Maximum memory used throughout the entire PROP-calculation: 8.9 MB

--------------------------------
SUGGESTED CITATIONS FOR THIS RUN
--------------------------------

Below you find a list of papers that are relevant to this ORCA run
We neither can nor want to force you to cite these papers, but we appreciate if you do
You receive ORCA, which is the product of decades of hard work by many enthusiastic individuals, for free
The only thing we kindly ask in return is that you cite our papers,
We deeply appreciate it, if you show your appreciation for ORCA by not just citing the generic ORCA reference.

Please note that relegating all ORCA citations to the supporting information does *not* help us.
SI sections are not indexed - citations you put there will not count into any citation statistics
But we need these citations in order to attract the funding resources that allow us to do what we are doing

Therefore, if you are a happy ORCA user, please consider citing a few of the papers listed below in the main body of your paper

In addition to the list printed below, the program has created the file /kaggle/working/Thr-2/Thr_InterFrag.bibtex that contains the list in bibtex format
You can import this file easily into all common literature databanks and citation aid programs

It goes without saying that in many instances, there are alternative algorithms to achieve similar
results as the ones you have gotten from ORCA. It is, of course, also the case that in some instances
ORCA just re-implements algorithms worked out by others. We are fully aware of that and we are also
fully appreciative of our colleagues work. Hence this citation list should not be read as indicating
that the listed papers, which are focused on our own work, are the only ones worth citing. It simply
meant to make it easier for users to cite ORCA specific papers. It is not a substitute for doing your
own literature research and citing the relevant literature in a scientifically appropriate manner.

List of essential papers. We consider these as the minimum necessary citations

  1. Neese, F.
     Software update: the ORCA program system, version 6.0
     WIRES Comput. Molec. Sci. 2025 15(1), e70019
     doi.org/10.1002/wcms.70019

List of papers to cite with high priority. The work reported in these papers was absolutely
necessary for this run to complete.
Our perspective: the developers of density functionals and basis sets usually get cited in chemistry papers
Good! But without the algorithms to do something with them, the functionals or basis sets would not do anything.
Hence, in our opinion, the algorithm design and method developments papers are equally worthy of getting cited

  1. Neese, F.
     An improvement of the resolution of the identity approximation for the formation of the Coulomb matrix
     J. Comp. Chem. 2003 24(14), 1740-1747
     doi.org/10.1002/jcc.10318
  2. Neese, F.; Wennmohs, F.; Hansen, A.; Becker, U.
     Efficient, approximate and parallel Hartree-Fock and hybrid DFT calculations. A 'chain-of-spheres' algorithm for the Hartree-Fock exchange
     Chem. Phys. 2009 356(1-3), 98-109
     doi.org/10.1016/j.chemphys.2008.10.036
  3. Grimme, S.; Antony, J.; Ehrlich, S.; Krieg, H.
     A consistent and accurate ab initio parametrization of density functional dispersion correction (DFT-D) for the 94 elements H-Pu
     J. Chem. Phys. 2010 132 , 154104
     doi.org/10.1063/1.3382344
  4. Grimme, S.; Ehrlich, S.; Goerigk, L.
     Effect of the damping function in dispersion corrected density functional theory
     J. Comput. Chem. 2011 32(7), 1456-1465
     doi.org/10.1002/jcc.21759
  5. Helmich-Paris, B.; de Souza, B.; Neese, F.; Izsák, R.
     An improved chain of spheres for exchange algorithm
     J. Chem. Phys. 2021 155(10), 104109
     doi.org/10.1063/5.0058766
  6. Neese, F.
     The SHARK Integral Generation and Digestion System
     J. Comp. Chem. 2022 44(3), 381
     doi.org/10.1002/jcc.26942

List of suggested additional citations. These are papers that are important in the 'surrounding' of 
of this run, or papers that preceded the highly important papers. If you like your results we are grateful for a citation.

  1. Izsak, R.; Neese, F.
     An overlap fitted chain of spheres exchange method
     J. Chem. Phys. 2011 135 , 144105
     doi.org/10.1063/1.3646921
  2. Izsak, R.; Hansen, A.; Neese, F.
     The resolution of identity and chain of spheres approximations for the LPNO-CCSD singles Fock term
     Molec. Phys. 2012 110 , 2413-2417
     doi.org/10.1080/00268976.2012.687466
  3. Neese, F.
     The ORCA program system
     WIRES Comput. Molec. Sci. 2012 2(1), 73-78
     doi.org/10.1002/wcms.81
  4. Izsak, R.; Neese, F.; Klopper, W.
     Robust fitting techniques in the chain of spheres approximation to the Fock exchange: The role of the complementary space
     J. Chem. Phys. 2013 139 , 
     doi.org/10.1063/1.4819264
  5. Neese, F.
     Software update: the ORCA program system, version 4.0
     WIRES Comput. Molec. Sci. 2018 8(1), 1-6
     doi.org/10.1002/wcms.1327
  6. Neese, F.; Wennmohs, F.; Becker, U.; Riplinger, C.
     The ORCA quantum chemistry program package
     J. Chem. Phys. 2020 152(22), 224108
     doi.org/10.1063/5.0004608
  7. Neese, F.
     Software update: The ORCA program system—Version 5.0
     WIRES Comput. Molec. Sci. 2022 12(1), e1606
     doi.org/10.1002/wcms.1606

List of optional additional citations

  1. Neese, F.
     Approximate second-order SCF convergence for spin unrestricted wavefunctions
     Chem. Phys. Lett. 2000 325(1-3), 93-98
     doi.org/10.1016/s0009-2614(00)00662-x

Timings for individual modules:

Sum of individual times          ...       29.899 sec (=   0.498 min)
Startup calculation              ...        1.409 sec (=   0.023 min)   4.7 %
SCF iterations                   ...       20.079 sec (=   0.335 min)  67.2 %
SCF Response                     ...        8.037 sec (=   0.134 min)  26.9 %
Property calculations            ...        0.375 sec (=   0.006 min)   1.3 %
                             ****ORCA TERMINATED NORMALLY****
TOTAL RUN TIME: 0 days 0 hours 0 minutes 30 seconds 329 msec
