
                                 *****************
                                 * O   R   C   A *
                                 *****************

                                            #,                                       
                                            ###                                      
                                            ####                                     
                                            #####                                    
                                            ######                                   
                                           ########,                                 
                                     ,,################,,,,,                         
                               ,,#################################,,                 
                          ,,##########################################,,             
                       ,#########################################, ''#####,          
                    ,#############################################,,   '####,        
                  ,##################################################,,,,####,       
                ,###########''''           ''''###############################       
              ,#####''   ,,,,##########,,,,          '''####'''          '####       
            ,##' ,,,,###########################,,,                        '##       
           ' ,,###''''                  '''############,,,                           
         ,,##''                                '''############,,,,        ,,,,,,###''
      ,#''                                            '''#######################'''  
     '                                                          ''''####''''         
             ,#######,   #######,   ,#######,      ##                                
            ,#'     '#,  ##    ##  ,#'     '#,    #''#        ,####,    ,#,          
            ##       ##  ##   ,#'  ##            #'  '#       #'       ,# #          
            ##       ##  #######   ##           ,######,      #####,      #          
            '#,     ,#'  ##    ##  '#,     ,#' ,#      #,     #,   #      #          
             '#######'   ##     ##  '#######'  #'      '#     '####' #    #          



                #########################################################
                #                        -***-                          #
                #          Department of theory and spectroscopy        #
                #                                                       #
                #                      Frank Neese                      #
                #                                                       #
                #     Directorship, Architecture, Infrastructure        #
                #                    SHARK, DRIVERS                     #
                #        Core code/Algorithms in most modules           #
                #                                                       #
                #        Max Planck Institute fuer Kohlenforschung      #
                #                Kaiser Wilhelm Platz 1                 #
                #                 D-45470 Muelheim/Ruhr                 #
                #                      Germany                          #
                #                                                       #
                #                  All rights reserved                  #
                #                        -***-                          #
                #########################################################


                         Program Version 6.1.1  -  RELEASE   -
                                (GIT: $487d211c$)
                          ($2025-11-21 10:33:24 +0100$)
                                                                         
                                  - NO-DMRG VERSION -                    
                                                                         


 With contributions from (in alphabetic order):
[Max-Planck-Institut fuer Kohlenforschung]                               
  Daniel Aravena         : Magnetic Suceptibility                        
  Michael Atanasov       : Ab Initio Ligand Field Theory (pilot matlab implementation)
  Alexander A. Auer      : GIAO ZORA, VPT2 properties, NMR spectrum      
  Ute Becker             : All parallelization in ORCA, NUMFREQ, NUMCALC 
  Giovanni Bistoni       : ED, misc. LED, open-shell LED, HFLD           
  Dmytro Bykov           : pre 5.0 version of the SCF Hessian            
  Marcos Casanova-Páez   : Triplet and SCS-CIS(D). UHF-(DLPNO)-IP/EA/STEOM-CCSD. UHF-CVS-IP/STEOM-CCSD   
  Vijay G. Chilkuri      : MRCI spin determinant printing, contributions to CSF-ICE 
  Pauline Colinet        : FMM embedding                                 
  Dipayan Datta          : RHF DLPNO-CCSD density                        
  Achintya Kumar Dutta   : EOM-CC, STEOM-CC                              
  Nicolas Foglia         : Exact transition moments, OPA infrastructure, MCD improvements    
  Dmitry Ganyushin       : Spin-Orbit,Spin-Spin,Magnetic field MRCI      
  Miquel Garcia-Rates    : C-PCM and meta-GGA Hessian, CCSD/C-PCM, Gaussian charge scheme 
  Tiago L. C. Gouveia    : GS-ROHF, GS-ROCIS                             
  Yang Guo               : DLPNO-NEVPT2, F12-NEVPT2, CIM, IAO-localization        
  Andreas Hansen         : Spin unrestricted coupled pair/coupled cluster methods 
  Ingolf Harden          : AUTO-CI MPn and infrastructure                
  Benjamin Helmich-Paris : MC-RPA, TRAH-(SCF,CASSCF), AVAS, COSX integrals, SCF dyn. polar., MC-PDFT, srDFT 
  Lee Huntington         : MR-EOM, pCC                                   
  Robert Izsak           : Overlap fitted RIJCOSX, COSX-SCS-MP3, EOM     
  Riya Kayal             : Wick's Theorem for AUTO-CI, AUTO-CI UHF-CCSDT 
  Emily Kempfer          : AUTO-CI RHF CISDT and CCSDT, approximate NEVPT4
  Christian Kollmar      : KDIIS, OOCD, Brueckner-CCSD(T), CCSD density, CASPT2, CASPT2-K, improved NEVPT2 
  Axel Koslowski         : Symmetry handling                             
  Simone Kossmann        : meta-GGA functionals, TD-DFT gradient, OOMP2, (MP2 Hessian; deprecated post 5.0) 
  Lucas Lang             : DCDCAS, Hyperfine gauge corrections, ICE-SOC+SSC
  Marvin Lechner         : AUTO-CI (C++ implementation), FIC-MRCC        
  Spencer Leger          : CASSCF response                               
  Dagmar Lenk            : GEPOL surface, SMD, ORCA-2-JSON               
  Dimitrios Liakos       : Extrapolation schemes; Compound Job, Property file
  Dimitrios Manganas     : Further ROCIS development; embedding schemes. LFT, Crystal Embedding 
  Dimitrios Pantazis     : SARC Basis sets                               
  Anastasios Papadopoulos: AUTO-CI, single reference methods and gradients 
  Taras Petrenko         : pre 6.0 DFT Hessian and TD-DFT gradient,  ECA, NRVS 
  Petra Pikulova         : Analytic Raman intensities                    
  Peter Pinski           : DLPNO-MP2, DLPNO-MP2 Gradient                 
  Shashank Vittal Rao    : ES-AILFT, MagRelax                            
  Christoph Reimann      : Effective Core Potentials                     
  Marius Retegan         : Local ZFS, SOC                                
  Christoph Riplinger    : Optimizer, TS searches, QM/MM, DLPNO-CCSD(T), (RO)-DLPNO pert. Triples 
  Michael Roemelt        : Original ROCIS implementation, recursive CI coupling coefficients
  Masaaki Saitow         : Open-shell DLPNO-CCSD energy and density      
  Barbara Sandhoefer     : DKH picture change effects                    
  Yorick L. A. Schmerwitz: GMF and freeze-and-release deltaSCF, NEB S-IDPP initial path                    
  Kantharuban Sivalingam : CASSCF convergence/infrastructure, NEVPT2, NEVPT3, NEVPT4(SD), FIC-MRCI and CEPA variants
  Bernardo de Souza      : ESD, SOC TD-DFT                               
  Georgi L. Stoychev     : AutoAux, RI-MP2 NMR, DLPNO-MP2 response, X2C  
  Van Anh Tran           : RI-MP2 g-tensors                              
  Willem Van den Heuvel  : Paramagnetic NMR                              
  Zikuan Wang            : NOTCH, Electric field optimization            
  Frank Wennmohs         : Technical directorship and infrastructure     
  Hang Xu                : AUTO-CI-Response properties                   
                                                                         
[FACCTs GmbH]                                                            
  Markus Bursch, Nicolas Foglia, Miquel Garcia-Rates, Ingolf Harden, Hagen Neugebauer, Anastasios Papadopoulos, 
  Christoph Riplinger, Bernardo de Souza, Georgi L. Stoychev                                                    
                                                                 
  APM, various basis sets, CI-OPT, improved COSX, DLPNO-Multilevel,           
  DOCKER, DRACO, updates on ESD, Fragmentator, GOAT, IRC, LR-CPCM, L-BFGS, MBIS, meta-GGA TD-DFT gradient, ML-optimized integration grids, 
  MM, NACMEs, nearIR, NEB, NEB-TS, NL-DFT gradient (VV10), 2- and 3-layer-ONIOM, interface openCOSMO-RS, QMMM,   
  Crystal-QMMM, RESP, rigid body optimization, SF, symmetry and pop. for TD-DFT, various functionals, SOLVATOR                                   
                                                                         
[Other institutions]                                                     
  V. Asgeirsson          : NEB                                           
  Christoph Bannwarth    : sTDA-DFT, sTD-DFT, PBEh-3c, B97-3c, D3        
  Giovanni Bistoni       : ETS/NOCV, ADLD/ADEX, COVALED                  
  Martin Brehm           : Molecular dynamics                            
  Ronald Cardenas        : ETS/NOCV                                      
  Martina Colucci        : COVALED                                       
  Sebastian Ehlert       : rSCAN, r2SCAN, r2SCAN-3c, D4, dhf basis sets  
  Marvin Friede          : D4 for Fr, Ra, Ac-Lr                          
  Lars Goerigk           : TD-DFT with DH, B97 family of functionals     
  Stefan Grimme          : VdW corrections, initial TS optimization, DFT functionals, gCP, sTDA/sTD-DF 
  Waldemar Hujo          : DFT-NL                                        
  H. Jonsson             : NEB                                           
  Holger Kruse           : gCP                                           
  Marcel Mueller         : wB97X-3c, vDZP basis set                      
  Hagen Neugebauer       : wr2SCAN, Native XTB                           
  Gianluca Regni         : ADLD/ADEX                                     
  Tobias Risthaus        : pre 6.0 range-separated hybrid DFT and stability analysis
  Lukas Wittmann         : regularized MP2, r2SCAN double-hybrids, wr2SCAN        
                                                                         
We gratefully acknowledge several colleagues who have allowed us to      
interface, adapt or use parts of their codes:                            
  Ed Valeev, F. Pavosevic, A. Kumar             : LibInt (2-el integral package), F12 methods 
  Garnet Chan, S. Sharma, J. Yang, R. Olivares  : DMRG                   
  Ulf Ekstrom                                   : XCFun DFT Library      
  Mihaly Kallay                                 : mrcc  (arbitrary order and MRCC methods)
  Frank Weinhold                                : gennbo (NPA and NBO analysis)           
  Simon Mueller                                 : openCOSMO-RS                            
  Christopher J. Cramer and Donald G. Truhlar   : smd solvation model                     
  S Lehtola, MJT Oliveira, MAL Marques          : LibXC Library                           
  Liviu Ungur et al                             : ANISO software                          


 Your calculation uses the libint2 library for the computation of 2-el integrals
 For citations please refer to: http://libint.valeyev.net

 Your ORCA version has been built with support for libXC version: 7.0.0
 For citations please refer to: https://libxc.gitlab.io

 This ORCA versions uses:
   CBLAS   interface :  Fast vector & matrix operations
   LAPACKE interface :  Fast linear algebra routines
   SCALAPACK package :  Parallel linear algebra routines
   Shared memory     :  Shared parallel matrices
   BLAS/LAPACK       :  OpenBLAS 0.3.29  USE64BITINT DYNAMIC_ARCH NO_AFFINITY Zen SINGLE_THREADED
        Core in use  :  Zen
   Copyright (c) 2011-2014, The OpenBLAS Project


  ***********************************
  * Starting time: Sat Mar 28 19:44:09 2026
  * Host name:     17e9b25c3625
  * Process ID:    46
  * Working dir.:  /kaggle/working
  ***********************************

NOTE: MaxCore=3000 MB was set to SCF,MP2,MDCI,CIPSI,MRCI,RASCI and CIS
      => If you want to overwrite this, your respective input block should be placed after the MaxCore statement
Your calculation utilizes the atom-pairwise dispersion correction
with the Becke-Johnson damping scheme (D3BJ)


Your calculation utilizes the SMD solvation module
Please cite in your paper:
Marenich, A. V.; Cramer, C. J.; Truhlar, D. G. J. Phys. Chem. B 2009, 113, 6378 

Warning: RI is on but no J-basis has been assigned. Assigning Def2/J (nothing to worry about!)
================================================================================

----- Orbital basis set information -----
Your calculation utilizes the basis: 6-31G(d,p)
   H-He, Li-Ne : W. J. Hehre, R. Ditchfield and J.A. Pople, J. Chem. Phys. 56, 2257 (1972).
                 Note: He and Ne are unpublished basis sets taken from the Gaussian program.
                 Note: Li and B from J. D. Dill and J. A. Pople, J. Chem. Phys. 62, 2921 (1975).
   Na - Ar     : M. M. Francl, W. J. Pietro, W. J. Hehre, J. S. Binkley, M. S. Gordon, 
                 D. J. DeFrees and J. A. Pople, J. Chem. Phys. 77, 3654 (1982).
   K - Zn      : V. A. Rassolov, J. A. Pople, M. A. Ratner, and T. L. Windus, J. Chem. Phys. 109, 1223 (1998).

----- AuxJ basis set information -----
Your calculation utilizes the auxiliary basis: def2/J
   H-Rn: F. Weigend, Phys. Chem. Chem. Phys. 8, 1057 (2006).
   Fr-Lr: K. Eichkorn, F. Weigend, O. Treutler, R. Ahlrichs; Theor. Chem. Acc. 97, 119 (1997).

================================================================================
                                        WARNINGS
                       Please study these warnings very carefully!
================================================================================


WARNING: Geometry Optimization
  ===> : Switching off AutoStart
         For restart on a previous wavefunction, please use MOREAD

================================================================================
                                       INPUT FILE
================================================================================
NAME = /kaggle/working/Thr-1/Thr_InterFrag.inp
|  1> 
|  2> !RKS B3LYP 6-31G(d,p) TightSCF Opt D3BJ
|  3>  
|  4> %pal nprocs 2 end
|  5> %maxcore 3000
|  6> 
|  7> %cpcm
|  8>   smd true
|  9>   SMDsolvent "WATER"
| 10>   end
| 11> 
| 12> %scf
| 13>   MaxIter 1000
| 14>   SOSCF Start 0.00033
| 15>   end
| 16> end
| 17> 
| 18> %output
| 19>   PrintLevel Normal
| 20>   Print[ P_OrbEn ] 2        # print ALL orbital energies (not just up to LUMO+9) :contentReference[oaicite:10]{index=10}
| 21>   XYZFile true              # writes basename.xyz (handy for reuse) :contentReference[oaicite:11]{index=11}
| 22>   end
| 23> 
| 24> *xyz 0 1
| 25> O       -1.710600000     -1.184700000      0.358100000
| 26> O        0.975800000     -1.681100000      0.131000000
| 27> O        2.021400000      0.150500000     -0.700700000
| 28> N        0.405300000      1.866900000      0.574300000
| 29> C       -1.354400000      0.188000000      0.204300000
| 30> C        0.066400000      0.448800000      0.728500000
| 31> C       -1.525500000      0.551400000     -1.265400000
| 32> C        1.121600000     -0.339800000     -0.030000000
| 33> H        0.145300000      0.169900000      1.785700000
| 34> H       -2.074100000      0.770900000      0.792100000
| 35> H       -1.327300000      1.609700000     -1.457900000
| 36> H       -2.551800000      0.337600000     -1.585600000
| 37> H       -0.876200000     -0.053100000     -1.907800000
| 38> H        1.307600000      2.051500000      1.011500000
| 39> H       -0.274500000      2.435700000      1.077700000
| 40> H       -1.607000000     -1.409300000      1.298500000
| 41> H        1.664100000     -2.184300000     -0.354000000
| 42> *
| 43> 
| 44>                          ****END OF INPUT****
================================================================================

                       *****************************
                       * Geometry Optimization Run *
                       *****************************

Geometry optimization settings:
Update method            Update   .... BFGS
Choice of coordinates    CoordSys .... (2022) Redundant Internals
Initial Hessian          InHess   .... Almloef's Model
Max. no of cycles        MaxIter  .... 51

Convergence Tolerances:
Energy Change            TolE     ....  5.0000e-06 Eh
Max. Gradient            TolMAXG  ....  3.0000e-04 Eh/bohr
RMS Gradient             TolRMSG  ....  1.0000e-04 Eh/bohr
Max. Displacement        TolMAXD  ....  4.0000e-03 bohr
RMS Displacement         TolRMSD  ....  2.0000e-03 bohr
Strict Convergence                .... False

------------------------------------------------------------------------------
                        ORCA OPTIMIZATION COORDINATE SETUP
------------------------------------------------------------------------------

The optimization will be done in redundant internal coordinates (2022)
Making redundant internal coordinates   ...  (2022 redundants) done
Evaluating the initial hessian          ...  (Almloef) done
Evaluating the coordinates              ...  done
Calculating the B-matrix                .... done
Calculating the G-matrix                .... done
The number of degrees of freedom        ....   69

    -----------------------------------------------------------------
                    Redundant Internal Coordinates


    -----------------------------------------------------------------
         Definition                    Initial Value    Approx d2E/dq
    -----------------------------------------------------------------
      1. B(C   4,O   0)                  1.4265         0.489416   
      2. B(C   5,N   3)                  1.4662         0.423019   
      3. B(C   5,C   4)                  1.5367         0.364480   
      4. B(C   6,C   4)                  1.5236         0.382464   
      5. B(C   7,O   2)                  1.2247         1.027099   
      6. B(C   7,C   5)                  1.5201         0.387432   
      7. B(C   7,O   1)                  1.3588         0.627619   
      8. B(H   8,C   5)                  1.0962         0.351974   
      9. B(H   9,C   4)                  1.0969         0.351052   
     10. B(H  10,C   6)                  1.0938         0.355144   
     11. B(H  11,C   6)                  1.0961         0.352064   
     12. B(H  12,C   6)                  1.0953         0.353153   
     13. B(H  13,N   3)                  1.0195         0.417878   
     14. B(H  14,N   3)                  1.0193         0.418099   
     15. B(H  15,O   0)                  0.9724         0.496832   
     16. B(H  16,O   1)                  0.9809         0.481504   
     17. A(C   4,O   0,H  15)          107.4539         0.352734   
     18. A(C   7,O   1,H  16)          111.8708         0.366035   
     19. A(C   5,N   3,H  13)          109.5487         0.334371   
     20. A(H  13,N   3,H  14)          106.1061         0.299927   
     21. A(C   5,N   3,H  14)          109.4887         0.334400   
     22. A(C   5,C   4,H   9)          109.4899         0.321666   
     23. A(C   6,C   4,H   9)          108.4501         0.324216   
     24. A(O   0,C   4,H   9)          106.8431         0.335670   
     25. A(O   0,C   4,C   5)          110.9411         0.376638   
     26. A(C   5,C   4,C   6)          113.1040         0.363281   
     27. A(O   0,C   4,C   6)          107.7873         0.379790   
     28. A(C   4,C   5,C   7)          112.5540         0.364084   
     29. A(C   7,C   5,H   8)          107.4140         0.325044   
     30. A(N   3,C   5,C   7)          106.7888         0.371174   
     31. A(C   4,C   5,H   8)          110.6309         0.321804   
     32. A(N   3,C   5,H   8)          109.3218         0.327805   
     33. A(N   3,C   5,C   4)          109.9979         0.367301   
     34. A(H  11,C   6,H  12)          106.0251         0.288928   
     35. A(H  10,C   6,H  12)          108.8662         0.289322   
     36. A(C   4,C   6,H  12)          111.5645         0.324534   
     37. A(H  10,C   6,H  11)          107.8769         0.289182   
     38. A(C   4,C   6,H  11)          109.9015         0.324369   
     39. A(C   4,C   6,H  10)          112.3460         0.324834   
     40. A(O   1,C   7,O   2)          122.6104         0.470543   
     41. A(O   2,C   7,C   5)          125.1411         0.433917   
     42. A(O   1,C   7,C   5)          112.2411         0.397530   
     43. D(C   5,C   4,O   0,H  15)     56.1401         0.018913   
     44. D(H   9,C   4,O   0,H  15)    -63.1415         0.018913   
     45. D(C   6,C   4,O   0,H  15)   -179.5257         0.018913   
     46. D(H   8,C   5,N   3,H  13)     52.4540         0.015257   
     47. D(C   7,C   5,C   4,O   0)     61.6799         0.010640   
     48. D(C   7,C   5,C   4,H   9)    179.3605         0.010640   
     49. D(N   3,C   5,C   4,O   0)   -179.3744         0.010640   
     50. D(C   4,C   5,N   3,H  14)     58.1456         0.015257   
     51. D(C   7,C   5,C   4,C   6)    -59.5767         0.010640   
     52. D(N   3,C   5,C   4,H   9)    -61.6939         0.010640   
     53. D(C   7,C   5,N   3,H  13)    -63.4611         0.015257   
     54. D(N   3,C   5,C   4,C   6)     59.3690         0.010640   
     55. D(C   4,C   5,N   3,H  13)    174.1179         0.015257   
     56. D(C   7,C   5,N   3,H  14)   -179.4335         0.015257   
     57. D(H  10,C   6,C   4,O   0)    176.6328         0.011651   
     58. D(H  11,C   6,C   4,H   9)    -58.8152         0.011651   
     59. D(H  11,C   6,C   4,C   5)    179.5353         0.011651   
     60. D(H  11,C   6,C   4,O   0)     56.5141         0.011651   
     61. D(H  10,C   6,C   4,H   9)     61.3035         0.011651   
     62. D(H  10,C   6,C   4,C   5)    -60.3460         0.011651   
     63. D(O   2,C   7,C   5,N   3)     -4.0753         0.011175   
     64. D(O   1,C   7,C   5,H   8)     57.7731         0.011175   
     65. D(O   1,C   7,C   5,C   4)    -64.2403         0.011175   
     66. D(O   1,C   7,C   5,N   3)    174.9561         0.011175   
     67. D(C   5,C   7,O   1,H  16)   -179.4862         0.028952   
     68. D(O   2,C   7,C   5,C   4)    116.7284         0.011175   
     69. D(O   2,C   7,O   1,H  16)     -0.4265         0.028952   
    -----------------------------------------------------------------

Number of atoms                         .... 17
Number of degrees of freedom            .... 69


         *************************************************************
         *                GEOMETRY OPTIMIZATION CYCLE   1            *
         *************************************************************
---------------------------------
CARTESIAN COORDINATES (ANGSTROEM)
---------------------------------
  O     -1.710600   -1.184700    0.358100
  O      0.975800   -1.681100    0.131000
  O      2.021400    0.150500   -0.700700
  N      0.405300    1.866900    0.574300
  C     -1.354400    0.188000    0.204300
  C      0.066400    0.448800    0.728500
  C     -1.525500    0.551400   -1.265400
  C      1.121600   -0.339800   -0.030000
  H      0.145300    0.169900    1.785700
  H     -2.074100    0.770900    0.792100
  H     -1.327300    1.609700   -1.457900
  H     -2.551800    0.337600   -1.585600
  H     -0.876200   -0.053100   -1.907800
  H      1.307600    2.051500    1.011500
  H     -0.274500    2.435700    1.077700
  H     -1.607000   -1.409300    1.298500
  H      1.664100   -2.184300   -0.354000

----------------------------
CARTESIAN COORDINATES (A.U.)
----------------------------
  NO LB      ZA    FRAG     MASS         X           Y           Z
   0 O     8.0000    0    15.999   -3.232566   -2.238759    0.676711
   1 O     8.0000    0    15.999    1.843995   -3.176819    0.247554
   2 O     8.0000    0    15.999    3.819892    0.284404   -1.324131
   3 N     7.0000    0    14.007    0.765906    3.527930    1.085270
   4 C     6.0000    0    12.011   -2.559445    0.355269    0.386071
   5 C     6.0000    0    12.011    0.125478    0.848109    1.376665
   6 C     6.0000    0    12.011   -2.882777    1.041995   -2.391259
   7 C     6.0000    0    12.011    2.119517   -0.642129   -0.056692
   8 H     1.0000    0     1.008    0.274577    0.321064    3.374484
   9 H     1.0000    0     1.008   -3.919481    1.456790    1.496852
  10 H     1.0000    0     1.008   -2.508233    3.041892   -2.755032
  11 H     1.0000    0     1.008   -4.822203    0.637972   -2.996350
  12 H     1.0000    0     1.008   -1.655778   -0.100344   -3.605220
  13 H     1.0000    0     1.008    2.471006    3.876773    1.911458
  14 H     1.0000    0     1.008   -0.518730    4.602806    2.036558
  15 H     1.0000    0     1.008   -3.036790   -2.663191    2.453809
  16 H     1.0000    0     1.008    3.144693   -4.127729   -0.668963

--------------------------------
INTERNAL COORDINATES (ANGSTROEM)
--------------------------------
 O      0   0   0     0.000000000000     0.00000000     0.00000000
 O      1   0   0     2.741301211104     0.00000000     0.00000000
 O      2   1   0     2.267104499135   109.63721935     0.00000000
 N      3   2   1     2.680192748666    93.71351609    35.19570135
 C      1   2   3     1.426477539255    85.44696130   344.67593815
 C      4   3   2     1.466164540562    64.53250422   356.01634442
 C      5   1   2     1.523598654502   107.78730232    95.90050379
 C      3   2   1     1.224692867620    30.32199735    32.10440841
 H      6   4   3     1.096212689217   109.32179851   117.60061674
 H      5   1   2     1.096927226392   106.84306756   212.28469708
 H      7   5   1     1.093772544911   112.34604982   176.63282272
 H      7   5   1     1.096143316360   109.90149687    56.51410888
 H      7   5   1     1.095302926135   111.56447125   299.20669437
 H      4   3   2     1.019493153484    77.66056748   114.93553993
 H      4   3   2     1.019349321872   173.93254618   345.98639087
 H      1   2   3     0.972383813111    86.20908773   236.80799022
 H      2   1   3     0.980913925887   145.23461949   249.79245389

---------------------------
INTERNAL COORDINATES (A.U.)
---------------------------
 O      0   0   0     0.000000000000     0.00000000     0.00000000
 O      1   0   0     5.180308539573     0.00000000     0.00000000
 O      2   1   0     4.284206620347   109.63721935     0.00000000
 N      3   2   1     5.064830281100    93.71351609    35.19570135
 C      1   2   3     2.695651885383    85.44696130   344.67593815
 C      4   3   2     2.770649448928    64.53250422   356.01634442
 C      5   1   2     2.879184195019   107.78730232    95.90050379
 C      3   2   1     2.314334117969    30.32199735    32.10440841
 H      6   4   3     2.071541767149   109.32179851   117.60061674
 H      5   1   2     2.072892046723   106.84306756   212.28469708
 H      7   5   1     2.066930562683   112.34604982   176.63282272
 H      7   5   1     2.071410671448   109.90149687    56.51410888
 H      7   5   1     2.069822564078   111.56447125   299.20669437
 H      4   3   2     1.926562855492    77.66056748   114.93553993
 H      4   3   2     1.926291053136   173.93254618   345.98639087
 H      1   2   3     1.837539103838    86.20908773   236.80799022
 H      2   1   3     1.853658680877   145.23461949   249.79245389

---------------------
BASIS SET INFORMATION
---------------------
There are 4 groups of distinct atoms

 Group   1 Type O   : 10s4p1d contracted to 3s2p1d pattern {631/31/1}
 Group   2 Type N   : 10s4p1d contracted to 3s2p1d pattern {631/31/1}
 Group   3 Type C   : 10s4p1d contracted to 3s2p1d pattern {631/31/1}
 Group   4 Type H   : 4s1p contracted to 2s1p pattern {31/1}

Atom   0O    basis set group =>   1
Atom   1O    basis set group =>   1
Atom   2O    basis set group =>   1
Atom   3N    basis set group =>   2
Atom   4C    basis set group =>   3
Atom   5C    basis set group =>   3
Atom   6C    basis set group =>   3
Atom   7C    basis set group =>   3
Atom   8H    basis set group =>   4
Atom   9H    basis set group =>   4
Atom  10H    basis set group =>   4
Atom  11H    basis set group =>   4
Atom  12H    basis set group =>   4
Atom  13H    basis set group =>   4
Atom  14H    basis set group =>   4
Atom  15H    basis set group =>   4
Atom  16H    basis set group =>   4
---------------------------------
AUXILIARY/J BASIS SET INFORMATION
---------------------------------
There are 4 groups of distinct atoms

 Group   1 Type O   : 12s5p4d2f1g contracted to 6s4p3d1f1g pattern {711111/2111/211/2/1}
 Group   2 Type N   : 12s5p4d2f1g contracted to 6s4p3d1f1g pattern {711111/2111/211/2/1}
 Group   3 Type C   : 12s5p4d2f1g contracted to 6s4p3d1f1g pattern {711111/2111/211/2/1}
 Group   4 Type H   : 5s2p1d contracted to 3s1p1d pattern {311/2/1}

Atom   0O    basis set group =>   1
Atom   1O    basis set group =>   1
Atom   2O    basis set group =>   1
Atom   3N    basis set group =>   2
Atom   4C    basis set group =>   3
Atom   5C    basis set group =>   3
Atom   6C    basis set group =>   3
Atom   7C    basis set group =>   3
Atom   8H    basis set group =>   4
Atom   9H    basis set group =>   4
Atom  10H    basis set group =>   4
Atom  11H    basis set group =>   4
Atom  12H    basis set group =>   4
Atom  13H    basis set group =>   4
Atom  14H    basis set group =>   4
Atom  15H    basis set group =>   4
Atom  16H    basis set group =>   4


           ************************************************************
           *        Program running with 2 parallel MPI-processes     *
           *              working on a common directory               *
           ************************************************************
------------------------------------------------------------------------------
                             ORCA STARTUP CALCULATIONS
                           -- RI-GTO INTEGRALS CHOSEN --
------------------------------------------------------------------------------
------------------------------------------------------------------------------
                   ___                                                        
                  /   \      - P O W E R E D   B Y -                         
                 /     \                                                     
                 |  |  |   _    _      __       _____    __    __             
                 |  |  |  | |  | |    /  \     |  _  \  |  |  /  |          
                  \  \/   | |  | |   /    \    | | | |  |  | /  /          
                 / \  \   | |__| |  /  /\  \   | |_| |  |  |/  /          
                |  |  |   |  __  | /  /__\  \  |    /   |      \           
                |  |  |   | |  | | |   __   |  |    \   |  |\   \          
                \     /   | |  | | |  |  |  |  | |\  \  |  | \   \       
                 \___/    |_|  |_| |__|  |__|  |_| \__\ |__|  \__/        
                                                                              
                      - O R C A' S   B I G   F R I E N D -                    
                                      &                                       
                       - I N T E G R A L  F E E D E R -                       
                                                                              
 v1 FN, 2020, v2 2021, v3 2022-2024                                           
------------------------------------------------------------------------------


----------------------
SHARK INTEGRAL PACKAGE
----------------------

Number of atoms                             ...     17
Number of basis functions                   ...    157
Number of shells                            ...     75
Maximum angular momentum                    ...      2
Integral batch strategy                     ... SHARK/LIBINT Hybrid
RI-J (if used) integral strategy            ... SPLIT-RIJ (Revised 2003 algorithm where possible)
Printlevel                                  ...      1
Contraction scheme used                     ... SEGMENTED contraction
Prescreening option                         ... SCHWARTZ
   Thresh                                   ... 2.500e-11
   Tcut                                     ... 2.500e-12
   Tpresel                                  ... 2.500e-12 
Coulomb Range Separation                    ... NOT USED
Exchange Range Separation                   ... NOT USED
Multipole approximations                    ... NOT USED
Finite Nucleus Model                        ... NOT USED
CABS basis                                  ... NOT available
Auxiliary Coulomb fitting basis             ... AVAILABLE
   # of basis functions in Aux-J            ...    491
   # of shells in Aux-J                     ...    165
   Maximum angular momentum in Aux-J        ...      4
Auxiliary J/K fitting basis                 ... NOT available
Auxiliary Correlation fitting basis         ... NOT available
Auxiliary 'external' fitting basis          ... NOT available

Checking pre-screening integrals            ... done (  0.0 sec) Dimension = 75
   => SHARK Basis and OBASIS are compatible. Storing Pre-screening
Shell pair information
Shell pair cut-off parameter TPreSel        ...   2.5e-12
Total number of shell pairs                 ...      2850
Shell pairs after pre-screening             ...      2678
Total number of primitive shell pairs       ...     13890
Primitive shell pairs kept                  ...      8872
          la=0 lb=0:    841 shell pairs
          la=1 lb=0:    978 shell pairs
          la=1 lb=1:    303 shell pairs
          la=2 lb=0:    325 shell pairs
          la=2 lb=1:    195 shell pairs
          la=2 lb=2:     36 shell pairs

Checking whether 4 symmetric matrices of dimension 157 fit in memory
:Max Core in MB      =   3000.00
 MB in use           =      7.03
 MB left             =   2992.97
 MB needed           =      0.38
 Data fit in memory  = YES
Calculating RI/J V-Matrix + Cholesky decomp.... done (  0.0 sec)
Calculating Nuclear repulsion               ... done (  0.0 sec) ENN=    413.166381807865 Eh

Diagonalization of the overlap matrix:
Smallest eigenvalue                        ... 2.971e-03
Time for diagonalization                   ...    0.005 sec
Threshold for overlap eigenvalues          ... 1.000e-07
Number of eigenvalues below threshold      ... 0
Time for construction of square roots      ...    0.001 sec
Total time needed                          ...    0.007 sec

-------------------
DFT GRID GENERATION
-------------------

General Integration Accuracy     IntAcc      ... 4.388
Radial Grid Type                 RadialGrid  ... OptM3 with GC (2021)
Angular Grid (max. ang.)         AngularGrid ... 4 (Lebedev-302)
Angular grid pruning method      GridPruning ... 4 (adaptive)
Weight generation scheme         WeightScheme... mBecke (2022)
Basis function cutoff            BFCut       ... 1.0000e-11
Integration weight cutoff        WCut        ... 1.0000e-14
Partially contracted basis set               ... off
Rotationally invariant grid construction     ... off
Angular grids for H and He will be reduced by one unit

Total number of grid points                  ...    77195
Total number of batches                      ...     1215
Average number of points per batch           ...       63
Average number of grid points per atom       ...     4541

--------------------
COSX GRID GENERATION
--------------------

GRIDX 1
-------
General Integration Accuracy     IntAcc      ... 3.816
Radial Grid Type                 RadialGrid  ... OptM3 with GC (2021)
Angular Grid (max. ang.)         AngularGrid ... 1 (Lebedev-50)
Angular grid pruning method      GridPruning ... 4 (adaptive)
Weight generation scheme         WeightScheme... mBecke (2022)
Basis function cutoff            BFCut       ... 1.0000e-11
Integration weight cutoff        WCut        ... 1.0000e-14
Partially contracted basis set               ... on
Rotationally invariant grid construction     ... off
Angular grids for H and He will be reduced by one unit

Total number of grid points                  ...     9859
Total number of batches                      ...       87
Average number of points per batch           ...      113
Average number of grid points per atom       ...      580
UseSFitting                                  ... on

GRIDX 2
-------
General Integration Accuracy     IntAcc      ... 4.020
Radial Grid Type                 RadialGrid  ... OptM3 with GC (2021)
Angular Grid (max. ang.)         AngularGrid ... 2 (Lebedev-110)
Angular grid pruning method      GridPruning ... 4 (adaptive)
Weight generation scheme         WeightScheme... mBecke (2022)
Basis function cutoff            BFCut       ... 1.0000e-11
Integration weight cutoff        WCut        ... 1.0000e-14
Partially contracted basis set               ... on
Rotationally invariant grid construction     ... off
Angular grids for H and He will be reduced by one unit

Total number of grid points                  ...    21203
Total number of batches                      ...      174
Average number of points per batch           ...      121
Average number of grid points per atom       ...     1247
UseSFitting                                  ... on

GRIDX 3
-------
General Integration Accuracy     IntAcc      ... 4.338
Radial Grid Type                 RadialGrid  ... OptM3 with GC (2021)
Angular Grid (max. ang.)         AngularGrid ... 3 (Lebedev-194)
Angular grid pruning method      GridPruning ... 4 (adaptive)
Weight generation scheme         WeightScheme... mBecke (2022)
Basis function cutoff            BFCut       ... 1.0000e-11
Integration weight cutoff        WCut        ... 1.0000e-14
Partially contracted basis set               ... on
Rotationally invariant grid construction     ... off
Angular grids for H and He will be reduced by one unit

Total number of grid points                  ...    46549
Total number of batches                      ...      371
Average number of points per batch           ...      125
Average number of grid points per atom       ...     2738
UseSFitting                                  ... on
Grids setup in   1.0 sec
Initializing property integral containers    ... done (  0.0 sec)

SHARK setup successfully completed in   1.3 seconds

Maximum memory used throughout the entire STARTUP-calculation: 26.2 MB


           ************************************************************
           *        Program running with 2 parallel MPI-processes     *
           *              working on a common directory               *
           ************************************************************
-------------------------------------------------------------------------------
                                 ORCA GUESS
                   Start orbitals & Density for SCF / CASSCF
-------------------------------------------------------------------------------

------------
SCF SETTINGS
------------
Hamiltonian:
 Density Functional     Method          .... DFT(GTOs)
 Exchange Functional    Exchange        .... B88
   X-Alpha parameter    XAlpha          ....  0.666667
   Becke's b parameter  XBeta           ....  0.004200
 Correlation Functional Correlation     .... LYP
 LDA part of GGA corr.  LDAOpt          .... VWN-5
 Gradients option       PostSCFGGA      .... off
 Hybrid DFT is turned on
   Fraction HF Exchange ScalHFX         ....  0.200000
   Scaling of DF-GGA-X  ScalDFX         ....  0.720000
   Scaling of DF-GGA-C  ScalDFC         ....  0.810000
   Scaling of DF-LDA-C  ScalLDAC        ....  1.000000
   Perturbative correction              ....  0.000000
   NL short-range parameter             ....  4.800000
 RI-approximation to the Coulomb term is turned on
   Number of AuxJ basis functions       .... 491
   RIJ-COSX (HFX calculated with COS-X)).... on


General Settings:
 Integral files         IntName         .... /kaggle/working/Thr-1/Thr_InterFrag
 Hartree-Fock type      HFTyp           .... RHF
 Total Charge           Charge          ....    0
 Multiplicity           Mult            ....    1
 Number of Electrons    NEL             ....   64
 Basis Dimension        Dim             ....  157
 Nuclear Repulsion      ENuc            ....    413.1663818079 Eh

Convergence Acceleration:
 AO-DIIS                CNVDIIS         .... on
   Start iteration      DIISMaxIt       ....    12
   Startup error        DIISStart       ....  0.200000
   # of expansion vecs  DIISMaxEq       ....     5
   Bias factor          DIISBfac        ....   1.050
   Max. coefficient     DIISMaxC        ....  10.000
 MO-DIIS                CNVKDIIS        .... off
 Trust-Rad. Augm. Hess. CNVTRAH         .... auto
   Auto Start mean grad. ratio tolernc. ....  1.125000
   Auto Start start iteration           ....    50
   Auto Start num. interpolation iter.  ....    10
   Max. Number of Micro iterations      ....    24
   Max. Number of Macro iterations      .... Maxiter - #DIIS iter
   Number of Davidson start vectors     ....     2
   Converg. threshold    (grad. norm)   ....   1.000e-05
   Grad. Scal. Fac. for Micro threshold ....   0.100
   Minimum threshold for Micro iter.    ....   1.000e-02
   NR start threshold (gradient norm)   ....   1.000e-04
   Initial trust radius                 ....   0.400
   Minimum AH scaling param. (alpha)    ....   1.000
   Maximum AH scaling param. (alpha)    .... 1000.000
   Quad. conv. algorithm                .... NR
   White noise on init. David. guess    .... on
   Maximum white noise                  ....   0.010
   Pseudo random numbers                .... off
   Inactive MOs                         .... canonical
   Orbital update algorithm             .... Taylor
   Preconditioner                       .... Diag
   Full preconditioner red. dimension   ....   250
 SOSCF                 CNVSOSCF           .... on
   Start iteration     SOSCFMaxIt         ....   150
   Startup grad/error  SOSCFStart         ....  0.000330
   Hessian update      SOSCFHessUp        .... L-BFGS
   Autom. constraints  SOSCFAutoConstrain .... off
 Level Shifting         CNVShift        .... on
   Level shift para.    LevelShift      ....    0.2500
   Turn off err/grad.   ShiftErr        ....    0.0010
 Zerner damping         CNVZerner       .... off
 Static damping         CNVDamp         .... on
   Fraction old density DampFac         ....    0.7000
   Max. Damping (<1)    DampMax         ....    0.9800
   Min. Damping (>=0)   DampMin         ....    0.0000
   Turn off err/grad.   DampErr         ....    0.1000

SCF Procedure:
 Maximum # iterations   MaxIter         ....  1000
 SCF integral mode      SCFMode         .... Direct
   Integral package                     .... SHARK and LIBINT hybrid scheme
 Reset frequency        DirectResetFreq ....    20
 Integral Threshold     Thresh          ....  2.500e-11 Eh
 Primitive CutOff       TCut            ....  2.500e-12 Eh

Convergence Tolerance:
 Convergence Check Mode ConvCheckMode   .... Total+1el-Energy
 Convergence forced     ConvForced      .... 0
 Energy Change          TolE            ....  1.000e-08 Eh
 1-El. energy change                    ....  1.000e-05 Eh
 Orbital Gradient       TolG            ....  1.000e-05
 Orbital Rotation angle TolX            ....  1.000e-05
 DIIS Error             TolErr          ....  5.000e-07

------------------------------
INITIAL GUESS: MODEL POTENTIAL
------------------------------
Loading Hartree-Fock densities                     ... done
Calculating cut-offs                               ... done
Initializing the effective Hamiltonian             ... done
Setting up the integral package (SHARK)            ... done
Starting the Coulomb interaction                   ... done (   0.1 sec)
Making the grid                                    ... done (   0.1 sec)
Mapping shells                                     ... done
Starting the XC term evaluation                    ... done (   0.1 sec)
  promolecular density results
     # of electrons  =     63.994268961
     EX              =    -54.402313142
     EC              =     -2.195624570
     EX+EC           =    -56.597937711
Transforming the Hamiltonian                       ... done (   0.0 sec)
Diagonalizing the Hamiltonian                      ... done (   0.0 sec)
Back transforming the eigenvectors                 ... done (   0.0 sec)
Now organizing SCF variables                       ... done
                      ------------------
                      INITIAL GUESS DONE (   0.3 sec)
                      ------------------
             **** ENERGY FILE WAS UPDATED (/kaggle/working/Thr-1/Thr_InterFrag.en.tmp) ****
Finished Guess after   0.6 sec
Maximum memory used throughout the entire GUESS-calculation: 10.4 MB


           ************************************************************
           *        Program running with 2 parallel MPI-processes     *
           *              working on a common directory               *
           ************************************************************

-------------------------------------------------------------------------------------------
                                      ORCA LEAN-SCF
                              memory conserving SCF solver
-------------------------------------------------------------------------------------------

--------------------
CPCM SOLVATION MODEL
--------------------
CPCM parameters:
  Epsilon                                         ...      78.3550
  Refrac                                          ...       1.3328
  Rsolv                                           ...       1.3000
  Surface type                                    ... GAUSSIAN VDW
  Discretization scheme                           ... Constant charge density
    Threshold for H atoms                         ...       5.0000 (charges/Ang^2)
    Threshold for non-H atoms                     ...       5.0000 (charges/Ang^2)
  Epsilon function type                           ...         CPCM
Solvent:                                          ... WATER
SMD-CDS solvent descriptors:
  Soln                                            ...       1.3328
  Soln25                                          ...       1.3323
  Sola                                            ...       0.0000
  Solb                                            ...       0.0000
  Solg                                            ...       0.0000
  Solc                                            ...       0.0000
  Solh                                            ...       0.0000
Radii:
  Scheme                                          ... Element-dependent radii
  Radius for O  used is    2.8724 Bohr (=   1.5200 Ang.)
  Radius for N  used is    3.5716 Bohr (=   1.8900 Ang.)
  Radius for C  used is    3.4960 Bohr (=   1.8500 Ang.)
  Radius for H  used is    2.2677 Bohr (=   1.2000 Ang.)
Calculating surface                               ...        done! (  0.0s)
Cavity surface points                             ...         1247
Cavity Volume                                     ...     790.4427
Cavity Surface-area                               ...     517.6637
Calculating surface distance matrix               ...        done! (  0.0s)
Performing Cholesky decomposition & store         ...        done! (  0.1s)
Overall time for CPCM initialization              ...                 0.1s

----------------------------------------D-I-I-S--------------------------------------------
Iteration    Energy (Eh)           Delta-E    RMSDP     MaxDP     DIISErr   Damp  Time(sec)
-------------------------------------------------------------------------------------------
               ***  Starting incremental Fock matrix formation  ***
    1    -437.7423969046874390     0.00e+00  5.24e-03  9.07e-02  2.58e-01  0.700   2.2
    2    -437.8958549810499790    -1.53e-01  3.32e-03  5.63e-02  1.17e-01  0.700   1.2
                               ***Turning on AO-DIIS***
    3    -437.9510189624836585    -5.52e-02  1.19e-03  1.68e-02  3.63e-02  0.700   1.2
    4    -437.9849568614779400    -3.39e-02  1.75e-03  2.03e-02  1.54e-02  0.000   1.2
    5    -438.0609381166290177    -7.60e-02  4.37e-04  6.28e-03  7.78e-03  0.000   1.1
    6    -438.0613583431460256    -4.20e-04  1.39e-04  1.81e-03  2.32e-03  0.000   1.1
    7    -438.0613832050605652    -2.49e-05  5.22e-05  6.84e-04  6.56e-04  0.000   1.0
               *** Restarting incremental Fock matrix formation ***
                             ****Resetting DIIS****
                              *** Initializing SOSCF ***
---------------------------------------S-O-S-C-F--------------------------------------
Iteration    Energy (Eh)           Delta-E    RMSDP     MaxDP     MaxGrad    Time(sec)
--------------------------------------------------------------------------------------
    8    -438.0613797450117772     3.46e-06  3.64e-05  5.80e-04  3.07e-04     2.1
               *** Restarting incremental Fock matrix formation ***
    9    -438.0613798922787510    -1.47e-07  2.74e-05  5.39e-04  9.71e-05     2.1
   10    -438.0613794003701287     4.92e-07  1.67e-05  3.27e-04  1.36e-04     1.5
   11    -438.0613802665562844    -8.66e-07  3.93e-06  9.97e-05  2.50e-05     1.4
   12    -438.0613802524560469     1.41e-08  2.48e-06  6.20e-05  4.44e-05     1.2
   13    -438.0613802751925050    -2.27e-08  5.20e-07  9.28e-06  1.96e-06     1.1
                  *** Gradient check signals convergence ***

               *****************************************************
               *                     SUCCESS                       *
               *           SCF CONVERGED AFTER  13 CYCLES          *
               *****************************************************

Recomputing exchange energy using gridx3       ... done (    3.045 sec)
Old exchange energy                            :    -11.061856998 Eh
New exchange energy                            :    -11.061881697 Eh
Exchange energy change after final integration :     -0.000024700 Eh
Total energy after final integration           :   -438.061404975 Eh

SMD CDS free energy correction energy :                 4.18613     Kcal/mol
Total Energy after SMD CDS correction =              -438.054733950 Eh
             **** ENERGY FILE WAS UPDATED (/kaggle/working/Thr-1/Thr_InterFrag.en.tmp) ****

----------------
TOTAL SCF ENERGY
----------------

Total Energy       :       -438.05473394976639 Eh          -11920.07532 eV

Components:
Nuclear Repulsion  :        413.16638180786504 Eh           11242.82882 eV
Electronic Energy  :       -851.18818719547096 Eh          -23162.00811 eV
One Electron Energy:      -1418.38642684285719 Eh          -38596.25687 eV
Two Electron Energy:        567.19823964738623 Eh           15434.24876 eV
CPCM Dielectric    :         -0.03957488784547 Eh              -1.07689 eV
SMD CDS (Gcds)     :          0.00667102524747 Eh               0.18153 eV

Virial components:
Potential Energy   :       -873.32048668988477 Eh          -23764.25859 eV
Kinetic Energy     :        435.26575274011833 Eh           11844.18328 eV
Virial Ratio       :          2.00640753652703

DFT components:
N(Alpha)           :       31.999966058193 electrons
N(Beta)            :       31.999966058193 electrons
N(Total)           :       63.999932116385 electrons
E(X)               :      -43.962635499710 Eh       
E(C)               :       -2.591473197143 Eh       
E(XC)              :      -46.554108696853 Eh       

CPCM Solvation Model Properties:
Surface-charge          :         -0.03026093449558
Corrected charge        :          0.00000000000000
Outlying charge corr.   :          0.00007436889442 Eh               0.00202 eV
Free-energy (cav+disp)  :          0.00667102524747 Eh               0.18153 eV

---------------
SCF CONVERGENCE
---------------

  Last Energy change         ...    2.2736e-08  Tolerance :   1.0000e-08
  Last MAX-Density change    ...    9.2848e-06  Tolerance :   1.0000e-07
  Last RMS-Density change    ...    5.1990e-07  Tolerance :   5.0000e-09
  Last DIIS Error            ...    3.0732e-04  Tolerance :   5.0000e-07
  Last Orbital Gradient      ...    1.9605e-06  Tolerance :   1.0000e-05
  Last Orbital Rotation      ...    3.1125e-06  Tolerance :   1.0000e-05


----------------
ORBITAL ENERGIES
----------------

  NO   OCC          E(Eh)            E(eV) 
   0   2.0000     -19.184283      -522.0309 
   1   2.0000     -19.138781      -520.7927 
   2   2.0000     -19.135376      -520.7001 
   3   2.0000     -14.303303      -389.2127 
   4   2.0000     -10.317815      -280.7620 
   5   2.0000     -10.230945      -278.3982 
   6   2.0000     -10.215097      -277.9669 
   7   2.0000     -10.160954      -276.4936 
   8   2.0000      -1.092805       -29.7367 
   9   2.0000      -1.013758       -27.5858 
  10   2.0000      -1.007673       -27.4202 
  11   2.0000      -0.880925       -23.9712 
  12   2.0000      -0.751675       -20.4541 
  13   2.0000      -0.700480       -19.0610 
  14   2.0000      -0.618580       -16.8324 
  15   2.0000      -0.571210       -15.5434 
  16   2.0000      -0.521867       -14.2007 
  17   2.0000      -0.489832       -13.3290 
  18   2.0000      -0.485249       -13.2043 
  19   2.0000      -0.463368       -12.6089 
  20   2.0000      -0.438288       -11.9264 
  21   2.0000      -0.427165       -11.6238 
  22   2.0000      -0.412449       -11.2233 
  23   2.0000      -0.383199       -10.4274 
  24   2.0000      -0.380909       -10.3651 
  25   2.0000      -0.373528       -10.1642 
  26   2.0000      -0.356410        -9.6984 
  27   2.0000      -0.322538        -8.7767 
  28   2.0000      -0.318546        -8.6681 
  29   2.0000      -0.279411        -7.6032 
  30   2.0000      -0.264040        -7.1849 
  31   2.0000      -0.236296        -6.4299 
  32   0.0000       0.003852         0.1048 
  33   0.0000       0.094418         2.5692 
  34   0.0000       0.096510         2.6262 
  35   0.0000       0.110168         2.9978 
  36   0.0000       0.149180         4.0594 
  37   0.0000       0.154991         4.2175 
  38   0.0000       0.164010         4.4629 
  39   0.0000       0.188017         5.1162 
  40   0.0000       0.198356         5.3975 
  41   0.0000       0.209555         5.7023 
  42   0.0000       0.214703         5.8424 
  43   0.0000       0.232998         6.3402 
  44   0.0000       0.252868         6.8809 
  45   0.0000       0.268275         7.3001 
  46   0.0000       0.287296         7.8177 
  47   0.0000       0.339096         9.2273 
  48   0.0000       0.374669        10.1953 
  49   0.0000       0.512716        13.9517 
  50   0.0000       0.537029        14.6133 
  51   0.0000       0.550729        14.9861 
  52   0.0000       0.583904        15.8888 
  53   0.0000       0.587588        15.9891 
  54   0.0000       0.628389        17.0993 
  55   0.0000       0.635314        17.2878 
  56   0.0000       0.652271        17.7492 
  57   0.0000       0.667693        18.1688 
  58   0.0000       0.682276        18.5657 
  59   0.0000       0.722010        19.6469 
  60   0.0000       0.734061        19.9748 
  61   0.0000       0.765057        20.8183 
  62   0.0000       0.778141        21.1743 
  63   0.0000       0.800029        21.7699 
  64   0.0000       0.832572        22.6554 
  65   0.0000       0.842579        22.9277 
  66   0.0000       0.856993        23.3200 
  67   0.0000       0.875943        23.8356 
  68   0.0000       0.880260        23.9531 
  69   0.0000       0.895040        24.3553 
  70   0.0000       0.902959        24.5708 
  71   0.0000       0.914438        24.8831 
  72   0.0000       0.937932        25.5224 
  73   0.0000       0.953627        25.9495 
  74   0.0000       0.965281        26.2666 
  75   0.0000       0.996441        27.1145 
  76   0.0000       1.000857        27.2347 
  77   0.0000       1.024020        27.8650 
  78   0.0000       1.053115        28.6567 
  79   0.0000       1.094975        29.7958 
  80   0.0000       1.114845        30.3365 
  81   0.0000       1.148823        31.2611 
  82   0.0000       1.200266        32.6609 
  83   0.0000       1.239542        33.7297 
  84   0.0000       1.346514        36.6405 
  85   0.0000       1.353079        36.8191 
  86   0.0000       1.372264        37.3412 
  87   0.0000       1.382561        37.6214 
  88   0.0000       1.453297        39.5462 
  89   0.0000       1.489576        40.5334 
  90   0.0000       1.510351        41.0988 
  91   0.0000       1.581750        43.0416 
  92   0.0000       1.604289        43.6549 
  93   0.0000       1.614011        43.9195 
  94   0.0000       1.644533        44.7500 
  95   0.0000       1.693680        46.0874 
  96   0.0000       1.714570        46.6558 
  97   0.0000       1.750665        47.6380 
  98   0.0000       1.764653        48.0186 
  99   0.0000       1.799072        48.9552 
 100   0.0000       1.807211        49.1767 
 101   0.0000       1.828910        49.7672 
 102   0.0000       1.861127        50.6438 
 103   0.0000       1.870662        50.9033 
 104   0.0000       1.894871        51.5621 
 105   0.0000       1.939614        52.7796 
 106   0.0000       1.970085        53.6087 
 107   0.0000       2.005682        54.5774 
 108   0.0000       2.017531        54.8998 
 109   0.0000       2.040127        55.5147 
 110   0.0000       2.056401        55.9575 
 111   0.0000       2.071987        56.3816 
 112   0.0000       2.100504        57.1576 
 113   0.0000       2.132563        58.0300 
 114   0.0000       2.143067        58.3158 
 115   0.0000       2.182360        59.3850 
 116   0.0000       2.228137        60.6307 
 117   0.0000       2.242721        61.0275 
 118   0.0000       2.289251        62.2937 
 119   0.0000       2.301351        62.6230 
 120   0.0000       2.331756        63.4503 
 121   0.0000       2.360831        64.2415 
 122   0.0000       2.379704        64.7550 
 123   0.0000       2.399287        65.2879 
 124   0.0000       2.419540        65.8390 
 125   0.0000       2.439585        66.3845 
 126   0.0000       2.506698        68.2107 
 127   0.0000       2.515771        68.4576 
 128   0.0000       2.529069        68.8195 
 129   0.0000       2.562718        69.7351 
 130   0.0000       2.635460        71.7145 
 131   0.0000       2.652887        72.1887 
 132   0.0000       2.682743        73.0011 
 133   0.0000       2.691477        73.2388 
 134   0.0000       2.720558        74.0302 
 135   0.0000       2.743170        74.6455 
 136   0.0000       2.754597        74.9564 
 137   0.0000       2.812233        76.5248 
 138   0.0000       2.831835        77.0581 
 139   0.0000       2.840060        77.2820 
 140   0.0000       2.877843        78.3101 
 141   0.0000       2.897693        78.8502 
 142   0.0000       2.928625        79.6919 
 143   0.0000       2.944430        80.1220 
 144   0.0000       2.987382        81.2908 
 145   0.0000       3.028346        82.4055 
 146   0.0000       3.074707        83.6670 
 147   0.0000       3.187429        86.7343 
 148   0.0000       3.218447        87.5784 
 149   0.0000       3.341045        90.9145 
 150   0.0000       3.386280        92.1454 
 151   0.0000       3.413732        92.8924 
 152   0.0000       3.455054        94.0168 
 153   0.0000       3.472811        94.5000 
 154   0.0000       3.505169        95.3805 
 155   0.0000       3.522195        95.8438 
 156   0.0000       3.546023        96.4922 

                    ********************************
                    * MULLIKEN POPULATION ANALYSIS *
                    ********************************

-----------------------
MULLIKEN ATOMIC CHARGES
-----------------------
   0 O :   -0.602967
   1 O :   -0.505169
   2 O :   -0.508074
   3 N :   -0.629618
   4 C :    0.180457
   5 C :   -0.036880
   6 C :   -0.336023
   7 C :    0.574615
   8 H :    0.142015
   9 H :    0.112403
  10 H :    0.123540
  11 H :    0.116455
  12 H :    0.116119
  13 H :    0.267840
  14 H :    0.267877
  15 H :    0.347570
  16 H :    0.369840
Sum of atomic charges:   -0.0000000

--------------------------------
MULLIKEN REDUCED ORBITAL CHARGES
--------------------------------
  0 O s       :     3.841375  s :     3.841375
      pz      :     1.456934  p :     4.740151
      px      :     1.883510
      py      :     1.399706
      dz2     :     0.008420  d :     0.021442
      dxz     :     0.001333
      dyz     :     0.003048
      dx2y2   :     0.004645
      dxy     :     0.003996

  1 O s       :     3.828180  s :     3.828180
      pz      :     1.713896  p :     4.655758
      px      :     1.641047
      py      :     1.300815
      dz2     :     0.002331  d :     0.021231
      dxz     :     0.003516
      dyz     :     0.004611
      dx2y2   :     0.005436
      dxy     :     0.005336

  2 O s       :     3.846566  s :     3.846566
      pz      :     1.445121  p :     4.635915
      px      :     1.452772
      py      :     1.738022
      dz2     :     0.005905  d :     0.025592
      dxz     :     0.005891
      dyz     :     0.003482
      dx2y2   :     0.005247
      dxy     :     0.005068

  3 N s       :     3.615707  s :     3.615707
      pz      :     1.700618  p :     3.985522
      px      :     1.172530
      py      :     1.112373
      dz2     :     0.001870  d :     0.028389
      dxz     :     0.009206
      dyz     :     0.005840
      dx2y2   :     0.006381
      dxy     :     0.005091

  4 C s       :     3.140151  s :     3.140151
      pz      :     0.977381  p :     2.611538
      px      :     0.922106
      py      :     0.712051
      dz2     :     0.012541  d :     0.067854
      dxz     :     0.009878
      dyz     :     0.012250
      dx2y2   :     0.017116
      dxy     :     0.016068

  5 C s       :     3.190788  s :     3.190788
      pz      :     1.018149  p :     2.790685
      px      :     0.952434
      py      :     0.820101
      dz2     :     0.011069  d :     0.055408
      dxz     :     0.007168
      dyz     :     0.013426
      dx2y2   :     0.012364
      dxy     :     0.011381

  6 C s       :     3.240138  s :     3.240138
      pz      :     0.949944  p :     3.065569
      px      :     1.060642
      py      :     1.054983
      dz2     :     0.007684  d :     0.030316
      dxz     :     0.006496
      dyz     :     0.004935
      dx2y2   :     0.007598
      dxy     :     0.003604

  7 C s       :     2.988208  s :     2.988208
      pz      :     0.773900  p :     2.317849
      px      :     0.829147
      py      :     0.714802
      dz2     :     0.017367  d :     0.119329
      dxz     :     0.014725
      dyz     :     0.023176
      dx2y2   :     0.035389
      dxy     :     0.028671

  8 H s       :     0.846750  s :     0.846750
      pz      :     0.007099  p :     0.011235
      px      :     0.002059
      py      :     0.002077

  9 H s       :     0.876634  s :     0.876634
      pz      :     0.003548  p :     0.010963
      px      :     0.004307
      py      :     0.003109

 10 H s       :     0.864832  s :     0.864832
      pz      :     0.002237  p :     0.011628
      px      :     0.002640
      py      :     0.006752

 11 H s       :     0.872053  s :     0.872053
      pz      :     0.002557  p :     0.011491
      px      :     0.006379
      py      :     0.002555

 12 H s       :     0.872359  s :     0.872359
      pz      :     0.003869  p :     0.011522
      px      :     0.003971
      py      :     0.003682

 13 H s       :     0.708666  s :     0.708666
      pz      :     0.007827  p :     0.023494
      px      :     0.011265
      py      :     0.004402

 14 H s       :     0.708555  s :     0.708555
      pz      :     0.008339  p :     0.023568
      px      :     0.008136
      py      :     0.007092

 15 H s       :     0.614608  s :     0.614608
      pz      :     0.020828  p :     0.037823
      px      :     0.009605
      py      :     0.007389

 16 H s       :     0.593100  s :     0.593100
      pz      :     0.011490  p :     0.037059
      px      :     0.015113
      py      :     0.010456


------------------------
MULLIKEN OVERLAP CHARGES
------------------------
B(  0-O ,  4-C ) :   0.5028 B(  0-O ,  5-C ) :  -0.0827 B(  0-O ,  6-C ) :  -0.0967 
B(  0-O ,  9-H ) :  -0.0819 B(  0-O , 15-H ) :   0.5951 B(  1-O ,  2-O ) :  -0.1586 
B(  1-O ,  5-C ) :  -0.1624 B(  1-O ,  7-C ) :   0.6072 B(  1-O , 16-H ) :   0.5562 
B(  2-O ,  5-C ) :  -0.1581 B(  2-O ,  7-C ) :   1.2188 B(  3-N ,  4-C ) :  -0.0849 
B(  3-N ,  5-C ) :   0.5502 B(  3-N ,  7-C ) :  -0.1039 B(  3-N ,  8-H ) :  -0.0907 
B(  3-N , 13-H ) :   0.6705 B(  3-N , 14-H ) :   0.6784 B(  4-C ,  5-C ) :   0.6343 
B(  4-C ,  6-C ) :   0.7281 B(  4-C ,  8-H ) :  -0.0814 B(  4-C ,  9-H ) :   0.8006 
B(  4-C , 11-H ) :  -0.0528 B(  4-C , 12-H ) :  -0.0562 B(  4-C , 15-H ) :  -0.0655 
B(  5-C ,  6-C ) :  -0.0903 B(  5-C ,  7-C ) :   0.5641 B(  5-C ,  8-H ) :   0.7921 
B(  5-C ,  9-H ) :  -0.1124 B(  5-C , 13-H ) :  -0.0555 B(  5-C , 14-H ) :  -0.0651 
B(  6-C ,  9-H ) :  -0.1046 B(  6-C , 10-H ) :   0.7426 B(  6-C , 11-H ) :   0.7496 
B(  6-C , 12-H ) :   0.7506 B(  7-C ,  8-H ) :  -0.1002 B( 10-H , 11-H ) :  -0.0514 
B( 10-H , 12-H ) :  -0.0508 B( 11-H , 12-H ) :  -0.0648 B( 13-H , 14-H ) :  -0.0561 



                     *******************************
                     * LOEWDIN POPULATION ANALYSIS *
                     *******************************

----------------------
LOEWDIN ATOMIC CHARGES
----------------------
   0 O :   -0.293153
   1 O :   -0.166275
   2 O :   -0.295012
   3 N :   -0.285733
   4 C :    0.054159
   5 C :   -0.049790
   6 C :   -0.208001
   7 C :    0.168920
   8 H :    0.085728
   9 H :    0.068748
  10 H :    0.082174
  11 H :    0.078673
  12 H :    0.074929
  13 H :    0.141087
  14 H :    0.140264
  15 H :    0.187688
  16 H :    0.215593

-------------------------------
LOEWDIN REDUCED ORBITAL CHARGES
-------------------------------
  0 O s       :     3.500029  s :     3.500029
      pz      :     1.458564  p :     4.750475
      px      :     1.856033
      py      :     1.435878
      dz2     :     0.015639  d :     0.042648
      dxz     :     0.001260
      dyz     :     0.007937
      dx2y2   :     0.009735
      dxy     :     0.008077

  1 O s       :     3.475841  s :     3.475841
      pz      :     1.687528  p :     4.645008
      px      :     1.621888
      py      :     1.335593
      dz2     :     0.004929  d :     0.045425
      dxz     :     0.004926
      dyz     :     0.009463
      dx2y2   :     0.014234
      dxy     :     0.011874

  2 O s       :     3.561020  s :     3.561020
      pz      :     1.460317  p :     4.682079
      px      :     1.492236
      py      :     1.729526
      dz2     :     0.008057  d :     0.051913
      dxz     :     0.015043
      dyz     :     0.007203
      dx2y2   :     0.010383
      dxy     :     0.011227

  3 N s       :     3.204019  s :     3.204019
      pz      :     1.684411  p :     4.026486
      px      :     1.178920
      py      :     1.163156
      dz2     :     0.003149  d :     0.055227
      dxz     :     0.012764
      dyz     :     0.009777
      dx2y2   :     0.016148
      dxy     :     0.013390

  4 C s       :     2.874587  s :     2.874587
      pz      :     1.056707  p :     2.917649
      px      :     1.010705
      py      :     0.850237
      dz2     :     0.030464  d :     0.153605
      dxz     :     0.020570
      dyz     :     0.026042
      dx2y2   :     0.041030
      dxy     :     0.035498

  5 C s       :     2.886789  s :     2.886789
      pz      :     1.064773  p :     3.037801
      px      :     1.031520
      py      :     0.941509
      dz2     :     0.023654  d :     0.125199
      dxz     :     0.016601
      dyz     :     0.029771
      dx2y2   :     0.029735
      dxy     :     0.025438

  6 C s       :     2.917410  s :     2.917410
      pz      :     1.030926  p :     3.228715
      px      :     1.099307
      py      :     1.098482
      dz2     :     0.018063  d :     0.061877
      dxz     :     0.012987
      dyz     :     0.010214
      dx2y2   :     0.014134
      dxy     :     0.006478

  7 C s       :     2.861139  s :     2.861139
      pz      :     0.850396  p :     2.690099
      px      :     0.939586
      py      :     0.900117
      dz2     :     0.036986  d :     0.279842
      dxz     :     0.035620
      dyz     :     0.054406
      dx2y2   :     0.083978
      dxy     :     0.068851

  8 H s       :     0.873164  s :     0.873164
      pz      :     0.026197  p :     0.041108
      px      :     0.007092
      py      :     0.007819

  9 H s       :     0.892551  s :     0.892551
      pz      :     0.011997  p :     0.038701
      px      :     0.015339
      py      :     0.011365

 10 H s       :     0.877753  s :     0.877753
      pz      :     0.007171  p :     0.040073
      px      :     0.007864
      py      :     0.025037

 11 H s       :     0.882246  s :     0.882246
      pz      :     0.008310  p :     0.039080
      px      :     0.023074
      py      :     0.007696

 12 H s       :     0.885647  s :     0.885647
      pz      :     0.013497  p :     0.039424
      px      :     0.013411
      py      :     0.012516

 13 H s       :     0.780344  s :     0.780344
      pz      :     0.027012  p :     0.078569
      px      :     0.038519
      py      :     0.013038

 14 H s       :     0.781044  s :     0.781044
      pz      :     0.029143  p :     0.078692
      px      :     0.026358
      py      :     0.023191

 15 H s       :     0.694977  s :     0.694977
      pz      :     0.065949  p :     0.117335
      px      :     0.029402
      py      :     0.021984

 16 H s       :     0.671073  s :     0.671073
      pz      :     0.035508  p :     0.113333
      px      :     0.047206
      py      :     0.030620


---------------------------------
LOEWDIN BOND ORDERS (THRESH 0.050000)
---------------------------------
B(  0-O ,  4-C ) :   1.1697 B(  0-O ,  5-C ) :   0.0649 B(  0-O ,  6-C ) :   0.0529 
B(  0-O , 15-H ) :   1.0164 B(  1-O ,  2-O ) :   0.1979 B(  1-O ,  5-C ) :   0.0623 
B(  1-O ,  7-C ) :   1.4022 B(  1-O , 16-H ) :   0.9723 B(  2-O ,  5-C ) :   0.0848 
B(  2-O ,  7-C ) :   2.1710 B(  3-N ,  5-C ) :   1.1314 B(  3-N ,  7-C ) :   0.0592 
B(  3-N , 13-H ) :   0.9805 B(  3-N , 14-H ) :   0.9811 B(  4-C ,  5-C ) :   0.9912 
B(  4-C ,  6-C ) :   1.0627 B(  4-C ,  9-H ) :   0.9068 B(  5-C ,  7-C ) :   0.9880 
B(  5-C ,  8-H ) :   0.8911 B(  6-C , 10-H ) :   0.9512 B(  6-C , 11-H ) :   0.9535 
B(  6-C , 12-H ) :   0.9540 B(  7-C , 16-H ) :   0.0522 

------------------------------------------
LOEWDIN REDUCED ORBITAL POPULATIONS PER MO
-------------------------------------------
THRESHOLD FOR PRINTING IS 0.1%%
                      0         1         2         3         4         5   
                 -19.18428 -19.13878 -19.13538 -14.30330 -10.31781 -10.23094
                   2.00000   2.00000   2.00000   2.00000   2.00000   2.00000
                  --------  --------  --------  --------  --------  --------
 0 O  s               0.0       0.0      99.9       0.0       0.0       0.0
 0 O  py              0.0       0.0       0.0       0.0       0.0       0.1
 1 O  s              99.9       0.0       0.0       0.0       0.0       0.0
 1 O  py              0.0       0.0       0.0       0.0       0.2       0.0
 2 O  s               0.0      99.8       0.0       0.0       0.1       0.0
 2 O  pz              0.0       0.0       0.0       0.0       0.1       0.0
 2 O  px              0.0       0.0       0.0       0.0       0.2       0.0
 3 N  s               0.0       0.0       0.0      99.7       0.0       0.0
 4 C  s               0.0       0.0       0.0       0.0       0.0      99.4
 5 C  px              0.0       0.0       0.0       0.0       0.1       0.1
 6 C  pz              0.0       0.0       0.0       0.0       0.0       0.1
 7 C  s               0.0       0.0       0.0       0.0      99.0       0.0

                      6         7         8         9        10        11   
                 -10.21510 -10.16095  -1.09280  -1.01376  -1.00767  -0.88093
                   2.00000   2.00000   2.00000   2.00000   2.00000   2.00000
                  --------  --------  --------  --------  --------  --------
 0 O  s               0.0       0.0       0.2      52.0       6.0       1.2
 0 O  pz              0.0       0.0       0.0       0.6       0.1       0.0
 0 O  px              0.0       0.0       0.0       0.2       0.0       0.0
 0 O  py              0.0       0.0       0.0       1.1       0.2       0.1
 1 O  s               0.0       0.0      36.4       1.4      23.4       0.0
 1 O  pz              0.0       0.0       0.4       0.0       0.1       0.0
 1 O  px              0.0       0.0       0.6       0.0       0.2       0.0
 1 O  py              0.0       0.0       1.7       0.0       0.2       0.1
 2 O  s               0.0       0.0      18.8       5.2      31.8       1.2
 2 O  pz              0.0       0.0       0.9       0.1       0.7       0.0
 2 O  px              0.0       0.0       1.5       0.2       1.3       0.0
 2 O  py              0.0       0.0       0.8       0.1       0.2       0.1
 3 N  s               0.0       0.0       0.1       0.0       0.2      39.0
 3 N  pz              0.0       0.0       0.0       0.0       0.0       1.0
 3 N  py              0.1       0.0       0.1       0.0       0.1       1.3
 4 C  s               0.0       0.0       0.1       8.8       1.2       1.5
 4 C  pz              0.0       0.1       0.0       0.1       0.0       0.1
 4 C  px              0.1       0.0       0.1       0.3       0.0       2.0
 4 C  py              0.0       0.0       0.0       7.0       0.7       1.1
 4 C  dz2             0.0       0.0       0.0       0.2       0.0       0.0
 4 C  dx2y2           0.0       0.0       0.0       0.4       0.0       0.1
 4 C  dxy             0.0       0.0       0.0       0.1       0.0       0.0
 5 C  s              99.4       0.0       1.1       0.5       0.5      16.6
 5 C  pz              0.0       0.0       0.5       0.0       0.1       0.1
 5 C  px              0.0       0.0       0.7       1.2       0.0       0.2
 5 C  py              0.0       0.0       0.5       0.2       0.0       5.4
 5 C  dz2             0.0       0.0       0.0       0.0       0.0       0.1
 5 C  dx2y2           0.0       0.0       0.0       0.0       0.0       0.2
 6 C  s               0.0      99.6       0.0       0.6       0.1       0.3
 6 C  pz              0.0       0.0       0.0       0.8       0.1       0.2
 6 C  py              0.0       0.0       0.0       0.2       0.0       0.0
 7 C  s               0.0       0.0      20.9       0.4       2.0       0.5
 7 C  pz              0.0       0.0       0.7       0.8       3.5       1.3
 7 C  px              0.1       0.0       1.5       1.6       5.5       2.4
 7 C  py              0.0       0.0       2.4       1.0      12.9       1.0
 7 C  dz2             0.0       0.0       0.2       0.0       0.1       0.0
 7 C  dxz             0.0       0.0       0.3       0.1       0.6       0.0
 7 C  dyz             0.0       0.0       0.2       0.0       0.1       0.0
 7 C  dx2y2           0.0       0.0       0.2       0.1       0.9       0.0
 7 C  dxy             0.0       0.0       0.2       0.0       0.2       0.1
 8 H  s               0.1       0.0       0.2       0.1       0.0       2.5
 8 H  pz              0.0       0.0       0.0       0.0       0.0       0.1
 9 H  s               0.0       0.0       0.0       1.1       0.2       0.3
10 H  s               0.0       0.1       0.0       0.1       0.0       0.1
11 H  s               0.0       0.1       0.0       0.1       0.0       0.0
13 H  s               0.0       0.0       0.1       0.0       0.1       8.4
13 H  pz              0.0       0.0       0.0       0.0       0.0       0.1
13 H  px              0.0       0.0       0.0       0.0       0.0       0.8
14 H  s               0.0       0.0       0.0       0.0       0.0       8.5
14 H  pz              0.0       0.0       0.0       0.0       0.0       0.2
14 H  px              0.0       0.0       0.0       0.0       0.0       0.4
14 H  py              0.0       0.0       0.0       0.0       0.0       0.4
15 H  s               0.0       0.0       0.1      10.7       1.2       0.3
15 H  pz              0.0       0.0       0.0       1.8       0.2       0.1
15 H  py              0.0       0.0       0.0       0.2       0.0       0.0
16 H  s               0.0       0.0       6.8       0.2       4.1       0.0
16 H  pz              0.0       0.0       0.3       0.0       0.2       0.0
16 H  px              0.0       0.0       0.5       0.0       0.4       0.0
16 H  py              0.0       0.0       0.4       0.0       0.3       0.0

                     12        13        14        15        16        17   
                  -0.75168  -0.70048  -0.61858  -0.57121  -0.52187  -0.48983
                   2.00000   2.00000   2.00000   2.00000   2.00000   2.00000
                  --------  --------  --------  --------  --------  --------
 0 O  s               4.1       0.0       1.2       0.4       0.3       0.1
 0 O  pz              1.5       0.5       0.1       2.7      18.2       0.3
 0 O  px              0.2       0.1       0.2       0.0       0.0       0.0
 0 O  py              3.1       0.3       3.7       7.5       8.3       1.8
 0 O  dz2             0.1       0.0       0.1       0.1       0.2       0.0
 1 O  s               0.3       0.9       0.4       0.4       0.0       0.6
 1 O  pz              0.0       0.7       0.8       0.2       0.1       6.8
 1 O  px              0.2       1.5       2.0       1.2       0.1       0.4
 1 O  py              0.8       6.9      14.7      20.6       4.4       0.0
 1 O  dx2y2           0.0       0.1       0.2       0.2       0.0       0.0
 1 O  dxy             0.0       0.0       0.0       0.1       0.0       0.0
 2 O  s               0.2       1.4       1.4       0.1       0.7       6.5
 2 O  pz              0.0       0.4       0.4       0.0       0.9       0.9
 2 O  px              0.1       0.6       0.7       0.0       1.4      16.1
 2 O  py              0.0       0.0       0.2       1.7       1.1       2.3
 3 N  s               7.5       4.0       0.6       0.9       0.1       0.2
 3 N  pz              0.6       0.2       0.0       0.5       0.1       2.9
 3 N  px              0.3       0.0       1.3       0.1       8.8       3.3
 3 N  py              1.3       3.1       0.8       6.9       0.2       0.3
 3 N  dx2y2           0.0       0.1       0.0       0.1       0.0       0.0
 4 C  s              15.6       0.9       7.9       4.8       0.1       0.1
 4 C  pz              2.4       4.3       6.2       0.3       4.0       0.8
 4 C  px              0.6       3.7       0.3       2.6       0.8       2.1
 4 C  py              2.0       0.4       0.7       0.2       9.5       1.0
 4 C  dz2             0.1       0.1       0.1       0.0       0.1       0.0
 4 C  dx2y2           0.1       0.1       0.0       0.0       0.1       0.0
 5 C  s               4.4      10.4       2.0       4.9       0.1       0.3
 5 C  pz              1.0       0.0       0.5       0.2       2.1      18.9
[...]
10 H  px              1.8       0.1       2.3       0.0       0.0       0.4
10 H  py              3.2       0.1      19.0       0.1       0.0       2.1
11 H  s               0.7       0.4       3.5       2.1       0.0       1.6
11 H  pz              0.1       0.3       1.2       0.8       0.0       0.5
11 H  px              3.3       1.5      13.0       8.6       0.1       6.0
11 H  py              0.5       0.0       0.0       0.0       0.0       0.0
12 H  s               1.5       0.1       0.1       2.4       0.0       0.1
12 H  pz              0.2       0.1       0.2       2.8       0.0       0.1
12 H  px              2.8       0.0       0.3       2.2       0.0       0.0
12 H  py              4.5       0.1       0.1       5.1       0.0       0.1
13 H  s               0.2       0.1       0.0       0.1       7.9       0.0
13 H  pz              0.2       0.4       0.0       0.0       2.1       0.0
13 H  px              0.9       0.3       0.0       0.2      17.4       0.1
13 H  py              0.2       0.4       0.0       0.0       0.9       0.0
14 H  s               1.0       0.6       0.0       0.6       7.4       0.0
14 H  pz              3.2       1.9       0.0       1.0       9.7       0.0
14 H  px              1.0       0.1       0.0       0.3       5.6       0.1
14 H  py              0.8       1.2       0.0       0.8       3.4       0.3
15 H  s               0.0       0.3       4.0       2.0       0.2       5.6
15 H  pz              0.2       0.6      10.3       5.4       0.4      13.7
15 H  px              0.3       0.0       0.0       0.1       0.0       0.0
15 H  py              0.1       0.2       0.4       0.1       0.1       0.1
16 H  s               0.2       3.4       0.1       6.5       0.3       4.8
16 H  pz              0.2       4.1       0.1       6.0       0.4       3.5
16 H  px              0.3       5.4       0.1       7.6       0.5       4.9
16 H  py              0.1       0.6       0.0       2.7       0.0       2.0

                    156   
                   3.53904
                   0.00000
                  --------
 0 O  s               2.5
 0 O  pz              2.4
 0 O  dz2             5.7
 0 O  dyz             0.2
 1 O  s               0.4
 1 O  pz              0.2
 1 O  px              0.3
 1 O  py              0.3
 1 O  dxz             0.7
 1 O  dyz             0.3
 1 O  dx2y2           0.4
 1 O  dxy             0.4
 3 N  px              0.1
 3 N  dxz             0.1
 3 N  dx2y2           0.2
 4 C  s               0.9
 4 C  pz              0.7
 4 C  px              1.1
 4 C  py              0.6
 4 C  dz2             0.8
 4 C  dxz             1.7
 4 C  dyz             0.5
 4 C  dx2y2           0.2
 4 C  dxy             4.2
 5 C  px              0.2
 5 C  dxz             0.1
 5 C  dyz             0.4
 5 C  dx2y2           0.4
 6 C  pz              0.4
 6 C  px              0.5
 6 C  py              2.7
 6 C  dxz             0.8
 6 C  dyz             3.9
 6 C  dxy             5.1
 7 C  s               0.1
 7 C  dxz             0.3
 7 C  dx2y2           0.4
 8 H  pz              0.3
 9 H  s               2.8
 9 H  pz              3.9
 9 H  px              3.3
 9 H  py              5.2
10 H  s               1.0
10 H  pz              0.2
10 H  px              0.4
10 H  py              3.2
11 H  s               0.2
11 H  pz              0.1
11 H  px              0.6
12 H  s               3.0
12 H  pz              4.2
12 H  px              3.0
12 H  py              5.3
13 H  s               0.2
13 H  px              0.5
15 H  s               5.1
15 H  pz             11.7
15 H  py              0.2
16 H  s               1.4
16 H  pz              1.0
16 H  px              1.3
16 H  py              0.6


                      *****************************
                      * MAYER POPULATION ANALYSIS *
                      *****************************

  NA   - Mulliken gross atomic population
  ZA   - Total nuclear charge
  QA   - Mulliken gross atomic charge
  VA   - Mayer's total valence
  BVA  - Mayer's bonded valence
  FA   - Mayer's free valence

  ATOM       NA         ZA         QA         VA         BVA        FA
  0 O      8.6026     8.0000    -0.6026     1.8435     1.8435    -0.0000
  1 O      8.4944     8.0000    -0.4944     2.0307     2.0307    -0.0000
  2 O      8.5096     8.0000    -0.5096     2.0236     2.0236    -0.0000
  3 N      7.6292     7.0000    -0.6292     2.8234     2.8234    -0.0000
  4 C      5.8178     6.0000     0.1822     3.8422     3.8422    -0.0000
  5 C      6.0296     6.0000    -0.0296     3.8048     3.8048     0.0000
  6 C      6.3392     6.0000    -0.3392     3.8692     3.8692     0.0000
  7 C      5.4396     6.0000     0.5604     3.9600     3.9600    -0.0000
  8 H      0.8658     1.0000     0.1342     0.9474     0.9474    -0.0000
  9 H      0.8899     1.0000     0.1101     0.9459     0.9459    -0.0000
 10 H      0.8794     1.0000     0.1206     0.9668     0.9668     0.0000
 11 H      0.8804     1.0000     0.1196     0.9567     0.9567    -0.0000
 12 H      0.8822     1.0000     0.1178     0.9612     0.9612     0.0000
 13 H      0.7311     1.0000     0.2689     0.9130     0.9130    -0.0000
 14 H      0.7262     1.0000     0.2738     0.9068     0.9068    -0.0000
 15 H      0.6509     1.0000     0.3491     0.8784     0.8784    -0.0000
 16 H      0.6321     1.0000     0.3679     0.8793     0.8793    -0.0000

  Mayer bond orders larger than 0.100000
B(  0-O ,  4-C ) :   0.9307 B(  0-O , 15-H ) :   0.8542 B(  1-O ,  7-C ) :   1.1168 
B(  1-O , 16-H ) :   0.8258 B(  2-O ,  7-C ) :   1.8611 B(  3-N ,  5-C ) :   0.9926 
B(  3-N , 13-H ) :   0.8930 B(  3-N , 14-H ) :   0.8933 B(  4-C ,  5-C ) :   0.9292 
B(  4-C ,  6-C ) :   1.0100 B(  4-C ,  9-H ) :   0.9381 B(  5-C ,  7-C ) :   0.9399 
B(  5-C ,  8-H ) :   0.9226 B(  6-C , 10-H ) :   0.9506 B(  6-C , 11-H ) :   0.9588 
B(  6-C , 12-H ) :   0.9519 

-------
TIMINGS
-------

Total SCF time: 0 days 0 hours 0 min 14 sec 

Total time                  ....      14.674 sec
Sum of individual times     ....      13.604 sec  ( 92.7%)

SCF preparation             ....       0.378 sec  (  2.6%)
Fock matrix formation       ....      13.020 sec  ( 88.7%)
  Startup                   ....       0.003 sec  (  0.0% of F)
  Split-RI-J                ....       0.841 sec  (  6.5% of F)
  Chain of spheres X        ....      10.670 sec  ( 82.0% of F)
  XC integration            ....       1.497 sec  ( 11.5% of F)
    XC Preparation          ....       0.000 sec  (  0.0% of XC)
    Basis function eval.    ....       0.582 sec  ( 38.9% of XC)
    Density eval.           ....       0.333 sec  ( 22.3% of XC)
    XC-Functional eval.     ....       0.091 sec  (  6.1% of XC)
    XC-Potential eval.      ....       0.378 sec  ( 25.2% of XC)
  CPCM terms                ....       1.007 sec  (  7.7% of F)
Diagonalization             ....       0.000 sec  (  0.0%)
Density matrix formation    ....       0.010 sec  (  0.1%)
Total Energy calculation    ....       0.006 sec  (  0.0%)
Population analysis         ....       0.114 sec  (  0.8%)
Orbital Transformation      ....       0.013 sec  (  0.1%)
Orbital Orthonormalization  ....       0.000 sec  (  0.0%)
DIIS solution               ....       0.045 sec  (  0.3%)
  MO trafo                  ....       0.006 sec  ( 14.1 % of DIIS)
  Orb grad                  ....       0.000 sec  (  0.0 % of DIIS)
  Energy W gradient         ....       0.000 sec  (  0.0 % of DIIS)
  DIIS error                ....       0.009 sec  ( 19.0 % of DIIS)
  DIIS work                 ....       0.022 sec  ( 48.5 % of DIIS)
  Form Q                    ....       0.000 sec  (  0.0 % of DIIS)
  Form QpQm                 ....       0.000 sec  (  0.0 % of DIIS)
  Exp/Cayley                ....       0.000 sec  (  0.0 % of DIIS)
  Orb update                ....       0.000 sec  (  0.0 % of DIIS)
  Wake-sleep                ....       0.002 sec  (  3.8 % of DIIS)
SOSCF solution              ....       0.019 sec  (  0.1%)
  MO trafo                  ....       0.009 sec  ( 47.4 % of SOSCF)
  Orb grad                  ....       0.001 sec  (  4.6 % of SOSCF)
  Rot update                ....       0.001 sec  (  6.2 % of SOSCF)
  Step                      ....       0.007 sec  ( 34.1 % of SOSCF)
Finished LeanSCF after  14.7 sec

Maximum memory used throughout the entire LEANSCF-calculation: 20.8 MB


-------------------------------------------------------------------------------
                          DFT DISPERSION CORRECTION                            
                                                                               
                              DFTD3 V3.1  Rev 1                                
                          USING Becke-Johnson damping                          
-------------------------------------------------------------------------------
The B3LYP functional is recognized
Active option DFTDOPT                   ...         4   

molecular C6(AA) [au] = 2247.381054 


            DFT-D V3
 parameters
 s6 scaling factor         :     1.0000 
 a1 scaling factor         :     0.3981 
 s8 scaling factor         :     1.9889 
 a2 scaling factor         :     4.4211 
 ad hoc parameters k1-k3   :    16.0000     1.3333    -4.0000 

 Edisp/kcal,au: -15.427028386180  -0.024584531992 
 E6   /kcal   :  -7.552195871 
 E8   /kcal   :  -7.874832515 
 % E8         :  51.045686296 

-------------------------   ----------------
Dispersion correction           -0.024584532
-------------------------   ----------------


-------------------------   --------------------
FINAL SINGLE POINT ENERGY      -438.084101319297
-------------------------   --------------------

                                *** OPTIMIZATION RUN DONE ***



           ************************************************************
           *        Program running with 2 parallel MPI-processes     *
           *              working on a common directory               *
           ************************************************************

------------------------------------------------------------------------------
                              ORCA PROPERTY CALCULATIONS
------------------------------------------------------------------------------

GBWName                                 ... /kaggle/working/Thr-1/Thr_InterFrag.gbw
Number of atoms                         ...     17
Number of basis functions               ...    157
Max core memory                         ...   3000 MB

Electric properties:
Dipole moment                           ... YES
Quadrupole moment                       ...  NO
Static polarizability (Dipole/Dipole)   ...  NO
Static polarizability (Dipole/Quad.)    ...  NO
Static polarizability (Quad./Quad.)     ...  NO
Static polarizability (Velocity)        ...  NO
Static hyperpolarizability              ...  NO

Atomic electric properties:
Dipole moment                           ...  NO
Quadrupole moment                       ...  NO
Static polarizability                   ...  NO

Choice of electric origin               ... Center of mass
Position of electric origin             ...    -0.035224     0.010078     0.006529

General magnetic properties:
Magnetizability                         ...  NO

EPR properties:
g-Tensor (aka g-matrix)                 ...  NO
Zero-Field splitting spin-orbit         ...  NO
Zero-field splitting spin-spin          ...  NO
Hyperfine couplings                     ...  NO (   0 nuclei)
Quadrupole couplings                    ...  NO (   0 nuclei)
Contact density                         ...  NO (   0 nuclei)

NMR properties:
Chemical shifts                         ...  NO (   0 nuclei)
Spin-rotation constants                 ...  NO (   0 nuclei)
Spin-spin couplings                     ...  NO (   0 nuclei,    0 pairs)

Choice of magnetic origin               ... GIAO
Position of magnetic origin             ...     0.000000     0.000000     0.000000

Properties with geometric perturbations:
SCF Hessian                             ...  NO
IR spectrum                             ...  NO
VCD spectrum                            ...  NO
X-ray spectroscopy properties:
SCF XES/XAS/RIXS spectra                ...  NO

SCF SOC stabilization energy            ...  NO
Diagonal Born-Oppenheimer correction    ...  NO

-------------
DIPOLE MOMENT
-------------

Method             : SCF
Type of density    : Electron Density
Multiplicity       :   1
Irrep              :   0
Energy             :  -438.0595167873044034 Eh
Basis              : AO
                                X                 Y                 Z
Electronic contribution:      4.697150318      -3.333016181       1.040043268
Nuclear contribution   :     -4.913318464       3.185193140       0.636623245
                        -----------------------------------------
Total Dipole Moment    :     -0.216168146      -0.147823042       1.676666513
                        -----------------------------------------
Magnitude (a.u.)       :      1.696994671
Magnitude (Debye)      :      4.313417662



--------------------
Rotational spectrum 
--------------------
 
Rotational constants in cm-1:             0.083327             0.059702             0.047669 
Rotational constants in MHz :          2498.070835          1789.827676          1429.071929 

Dipole components along the rotational axes: 
x,y,z [a.u.] :     0.344487     0.059062     1.660612 
x,y,z [Debye]:     0.875616     0.150123     4.220940 

 

Dipole moment calculation done in   0.0 sec 

Maximum memory used throughout the entire PROP-calculation: 9.2 MB

--------------------------------
SUGGESTED CITATIONS FOR THIS RUN
--------------------------------

Below you find a list of papers that are relevant to this ORCA run
We neither can nor want to force you to cite these papers, but we appreciate if you do
You receive ORCA, which is the product of decades of hard work by many enthusiastic individuals, for free
The only thing we kindly ask in return is that you cite our papers,
We deeply appreciate it, if you show your appreciation for ORCA by not just citing the generic ORCA reference.

Please note that relegating all ORCA citations to the supporting information does *not* help us.
SI sections are not indexed - citations you put there will not count into any citation statistics
But we need these citations in order to attract the funding resources that allow us to do what we are doing

Therefore, if you are a happy ORCA user, please consider citing a few of the papers listed below in the main body of your paper

In addition to the list printed below, the program has created the file /kaggle/working/Thr-1/Thr_InterFrag.bibtex that contains the list in bibtex format
You can import this file easily into all common literature databanks and citation aid programs

It goes without saying that in many instances, there are alternative algorithms to achieve similar
results as the ones you have gotten from ORCA. It is, of course, also the case that in some instances
ORCA just re-implements algorithms worked out by others. We are fully aware of that and we are also
fully appreciative of our colleagues work. Hence this citation list should not be read as indicating
that the listed papers, which are focused on our own work, are the only ones worth citing. It simply
meant to make it easier for users to cite ORCA specific papers. It is not a substitute for doing your
own literature research and citing the relevant literature in a scientifically appropriate manner.

List of essential papers. We consider these as the minimum necessary citations

  1. Neese, F.
     Software update: the ORCA program system, version 6.0
     WIRES Comput. Molec. Sci. 2025 15(1), e70019
     doi.org/10.1002/wcms.70019

List of papers to cite with high priority. The work reported in these papers was absolutely
necessary for this run to complete.
Our perspective: the developers of density functionals and basis sets usually get cited in chemistry papers
Good! But without the algorithms to do something with them, the functionals or basis sets would not do anything.
Hence, in our opinion, the algorithm design and method developments papers are equally worthy of getting cited

  1. Neese, F.
     An improvement of the resolution of the identity approximation for the formation of the Coulomb matrix
     J. Comp. Chem. 2003 24(14), 1740-1747
     doi.org/10.1002/jcc.10318
  2. Neese, F.; Wennmohs, F.; Hansen, A.; Becker, U.
     Efficient, approximate and parallel Hartree-Fock and hybrid DFT calculations. A 'chain-of-spheres' algorithm for the Hartree-Fock exchange
     Chem. Phys. 2009 356(1-3), 98-109
     doi.org/10.1016/j.chemphys.2008.10.036
  3. Grimme, S.; Antony, J.; Ehrlich, S.; Krieg, H.
     A consistent and accurate ab initio parametrization of density functional dispersion correction (DFT-D) for the 94 elements H-Pu
     J. Chem. Phys. 2010 132 , 154104
     doi.org/10.1063/1.3382344
  4. Grimme, S.; Ehrlich, S.; Goerigk, L.
     Effect of the damping function in dispersion corrected density functional theory
     J. Comput. Chem. 2011 32(7), 1456-1465
     doi.org/10.1002/jcc.21759
  5. Garcia-Rates, M.; Neese, F.
     Effect of the Solute Cavity on the Solvation Energy and its Derivatives within the Framework of the Gaussian Charge Scheme
     J. Comput. Chem. 2020 41 , 922-939
     doi.org/10.1002/jcc.26139
  6. Helmich-Paris, B.; de Souza, B.; Neese, F.; Izsák, R.
     An improved chain of spheres for exchange algorithm
     J. Chem. Phys. 2021 155(10), 104109
     doi.org/10.1063/5.0058766
  7. Neese, F.
     The SHARK Integral Generation and Digestion System
     J. Comp. Chem. 2022 44(3), 381
     doi.org/10.1002/jcc.26942

List of suggested additional citations. These are papers that are important in the 'surrounding' of 
of this run, or papers that preceded the highly important papers. If you like your results we are grateful for a citation.

  1. Izsak, R.; Neese, F.
     An overlap fitted chain of spheres exchange method
     J. Chem. Phys. 2011 135 , 144105
     doi.org/10.1063/1.3646921
  2. Izsak, R.; Hansen, A.; Neese, F.
     The resolution of identity and chain of spheres approximations for the LPNO-CCSD singles Fock term
     Molec. Phys. 2012 110 , 2413-2417
     doi.org/10.1080/00268976.2012.687466
  3. Neese, F.
     The ORCA program system
     WIRES Comput. Molec. Sci. 2012 2(1), 73-78
     doi.org/10.1002/wcms.81
  4. Izsak, R.; Neese, F.; Klopper, W.
     Robust fitting techniques in the chain of spheres approximation to the Fock exchange: The role of the complementary space
     J. Chem. Phys. 2013 139 , 
     doi.org/10.1063/1.4819264
  5. Neese, F.
     Software update: the ORCA program system, version 4.0
     WIRES Comput. Molec. Sci. 2018 8(1), 1-6
     doi.org/10.1002/wcms.1327
  6. Neese, F.; Wennmohs, F.; Becker, U.; Riplinger, C.
     The ORCA quantum chemistry program package
     J. Chem. Phys. 2020 152(22), 224108
     doi.org/10.1063/5.0004608
  7. Neese, F.
     Software update: The ORCA program system—Version 5.0
     WIRES Comput. Molec. Sci. 2022 12(1), e1606
     doi.org/10.1002/wcms.1606

List of optional additional citations

  1. Neese, F.
     Approximate second-order SCF convergence for spin unrestricted wavefunctions
     Chem. Phys. Lett. 2000 325(1-3), 93-98
     doi.org/10.1016/s0009-2614(00)00662-x

Timings for individual modules:

Sum of individual times          ...      456.730 sec (=   7.612 min)
Startup calculation              ...       21.801 sec (=   0.363 min)   4.8 %
SCF iterations                   ...      257.616 sec (=   4.294 min)  56.4 %
Property calculations            ...        0.383 sec (=   0.006 min)   0.1 %
SCF Gradient evaluation          ...      176.861 sec (=   2.948 min)  38.7 %
Geometry relaxation              ...        0.069 sec (=   0.001 min)   0.0 %
                             ****ORCA TERMINATED NORMALLY****
TOTAL RUN TIME: 0 days 0 hours 7 minutes 42 seconds 877 msec
