[Molden Format]
[Title]
 Molden file created by orca_2mkl for BaseName=/home/friday_code/Desktop/DP-Regenrate-Results/calculations/Ala/Ala-2/Ala_InterFrag

[Atoms] AU
C    1   6         -2.3139129592        -9.2457156568         2.5887018158 
C    2   6         -2.4038336876       -12.0605080867         3.2655450252 
C    3   6         -0.1945132904       -12.7906793676         4.9384874462 
N    4   7         -4.7701959956       -12.6520396098         4.5685962322 
O    5   8         -0.3570826503       -13.7982737833         7.0054245380 
O    6   8          2.0468946565       -12.2464930431         3.8515566582 
H    7   1         -2.4056629425        -8.0841860400         4.2972221107 
H    8   1         -3.9358252157        -8.7771164879         1.3941549039 
H    9   1         -2.1307588126       -13.1488297131         1.5094187495 
H   10   1         -4.7757347829       -14.5256142544         5.0076552021 
H   11   1         -6.1974948062       -12.4009157936         3.3031845903 
H   12   1          3.3772939801       -12.7908381046         5.0024093224 
H   13   1         -0.5910042895        -8.7818483622         1.5516824745 
[GTO]
  1 0
s   6 1.0 
     3047.5249000000         0.5363343823
      457.3695100000         0.9894506076
      103.9486900000         1.5972822308
       29.2101550000         2.0791870615
        9.2866630000         1.7741742532
        3.1639270000         0.6125798260
s   3 1.0 
        7.8682724000        -0.3995563516
        1.8812885000        -0.1841552393
        0.5442493000         0.5163903794
p   3 1.0 
        7.8682724000         1.2960827175
        1.8812885000         0.9937536282
        0.5442493000         0.4959527138
s   1 1.0 
        0.1687144000         0.1876178721
p   1 1.0 
        0.1687144000         0.1541275509
d   1 1.0 
        0.8000000000         1.9292013661

  2 0
s   6 1.0 
     3047.5249000000         0.5363343823
      457.3695100000         0.9894506076
      103.9486900000         1.5972822308
       29.2101550000         2.0791870615
        9.2866630000         1.7741742532
        3.1639270000         0.6125798260
s   3 1.0 
        7.8682724000        -0.3995563516
        1.8812885000        -0.1841552393
        0.5442493000         0.5163903794
p   3 1.0 
        7.8682724000         1.2960827175
        1.8812885000         0.9937536282
        0.5442493000         0.4959527138
s   1 1.0 
        0.1687144000         0.1876178721
p   1 1.0 
        0.1687144000         0.1541275509
d   1 1.0 
        0.8000000000         1.9292013661

  3 0
s   6 1.0 
     3047.5249000000         0.5363343823
      457.3695100000         0.9894506076
      103.9486900000         1.5972822308
       29.2101550000         2.0791870615
        9.2866630000         1.7741742532
        3.1639270000         0.6125798260
s   3 1.0 
        7.8682724000        -0.3995563516
        1.8812885000        -0.1841552393
        0.5442493000         0.5163903794
p   3 1.0 
        7.8682724000         1.2960827175
        1.8812885000         0.9937536282
        0.5442493000         0.4959527138
s   1 1.0 
        0.1687144000         0.1876178721
p   1 1.0 
        0.1687144000         0.1541275509
d   1 1.0 
        0.8000000000         1.9292013661

  4 0
s   6 1.0 
     4173.5110000000         0.6790079572
      627.4579000000         1.2504643275
      142.9021000000         2.0203691378
       40.2343300000         2.6442129843
       12.8202100000         2.2650039968
        4.3904370000         0.7791872309
s   3 1.0 
       11.6263580000        -0.5158738103
        2.7162800000        -0.2550239186
        0.7722180000         0.6727344163
p   3 1.0 
       11.6263580000         2.0680595460
        2.7162800000         1.6100106206
        0.7722180000         0.7644899877
s   1 1.0 
        0.2120313000         0.2226947990
p   1 1.0 
        0.2120313000         0.2050879094
d   1 1.0 
        0.8000000000         1.9292013661

  5 0
s   6 1.0 
     5484.6717000000         0.8317352088
      825.2349500000         1.5308074829
      188.0469600000         2.4771490916
       52.9645000000         3.2562802462
       16.8975700000         2.7928936336
        5.7996353000         0.9549376963
s   3 1.0 
       15.5396160000        -0.6179336976
        3.5999336000        -0.2757210088
        1.0137618000         0.8142076427
p   3 1.0 
       15.5396160000         3.1169455889
        3.5999336000         2.4014372483
        1.0137618000         1.0543605133
s   1 1.0 
        0.2700058000         0.2669561389
p   1 1.0 
        0.2700058000         0.2774319373
d   1 1.0 
        0.8000000000         1.9292013661

  6 0
s   6 1.0 
     5484.6717000000         0.8317352088
      825.2349500000         1.5308074829
      188.0469600000         2.4771490916
       52.9645000000         3.2562802462
       16.8975700000         2.7928936336
        5.7996353000         0.9549376963
s   3 1.0 
       15.5396160000        -0.6179336976
        3.5999336000        -0.2757210088
        1.0137618000         0.8142076427
p   3 1.0 
       15.5396160000         3.1169455889
        3.5999336000         2.4014372483
        1.0137618000         1.0543605133
s   1 1.0 
        0.2700058000         0.2669561389
p   1 1.0 
        0.2700058000         0.2774319373
d   1 1.0 
        0.8000000000         1.9292013661

  7 0
s   3 1.0 
       18.7311370000         0.2149354183
        2.8253937000         0.3645711272
        0.6401217000         0.4150514277
s   1 1.0 
        0.1612778000         0.1813806839
p   1 1.0 
        1.1000000000         1.6057611426

  8 0
s   3 1.0 
       18.7311370000         0.2149354183
        2.8253937000         0.3645711272
        0.6401217000         0.4150514277
s   1 1.0 
        0.1612778000         0.1813806839
p   1 1.0 
        1.1000000000         1.6057611426

  9 0
s   3 1.0 
       18.7311370000         0.2149354183
        2.8253937000         0.3645711272
        0.6401217000         0.4150514277
s   1 1.0 
        0.1612778000         0.1813806839
p   1 1.0 
        1.1000000000         1.6057611426

 10 0
s   3 1.0 
       18.7311370000         0.2149354183
        2.8253937000         0.3645711272
        0.6401217000         0.4150514277
s   1 1.0 
        0.1612778000         0.1813806839
p   1 1.0 
        1.1000000000         1.6057611426

 11 0
s   3 1.0 
       18.7311370000         0.2149354183
        2.8253937000         0.3645711272
        0.6401217000         0.4150514277
s   1 1.0 
        0.1612778000         0.1813806839
p   1 1.0 
        1.1000000000         1.6057611426

 12 0
s   3 1.0 
       18.7311370000         0.2149354183
        2.8253937000         0.3645711272
        0.6401217000         0.4150514277
s   1 1.0 
        0.1612778000         0.1813806839
p   1 1.0 
        1.1000000000         1.6057611426

 13 0
s   3 1.0 
       18.7311370000         0.2149354183
        2.8253937000         0.3645711272
        0.6401217000         0.4150514277
s   1 1.0 
        0.1612778000         0.1813806839
p   1 1.0 
        1.1000000000         1.6057611426

[5D]
[7F]
[9G]
[MO]
 Sym=     1a
 Ene= -1.91907468984160E+01
 Spin= Alpha
 Occup= 2.000000
  1       0.000050142253
  2       0.000297532554
  3      -0.000013528896
  4       0.000089552868
  5       0.000074848043
  6      -0.001208453119
  7      -0.000427724768
  8       0.000044251077
  9      -0.001101907972
 10      -0.000008909967
 11      -0.000033786003
 12       0.000081520740
 13      -0.000009573555
 14       0.000055265502
 15      -0.000056110237
 16      -0.000871541753
 17      -0.000181527663
 18      -0.000000022963
 19      -0.000188754135
 20       0.002342403030
 21      -0.000533744736
 22      -0.000225976156
 23       0.001888039449
 24       0.000223067295
 25      -0.000018361277
 26      -0.000110029962
 27      -0.000223596976
 28      -0.000004283548
 29       0.000041925800
 30       0.000097882116
 31       0.000641909248
 32       0.000093110067
 33      -0.000268859176
 34       0.007055254573
 35       0.009855929802
 36       0.002499070343
 37      -0.004865214178
 38      -0.000096438987
 39       0.000317763071
 40      -0.000027725431
 41       0.000234279150
 42      -0.000135497058
 43      -0.000025554934
 44      -0.000381606760
 45      -0.000254479620
 46      -0.000005272003
 47      -0.000066681636
 48      -0.000289237411
 49       0.001215666629
 50      -0.000336927865
 51       0.000735202289
 52      -0.000088527346
 53      -0.000041633576
 54      -0.000066695969
 55       0.000079194864
 56      -0.000043727753
 57      -0.000555035016
 58      -0.000588631545
 59       0.000109827960
 60      -0.000042687974
 61       0.000110689927
 62       0.002588572991
 63      -0.002218717507
 64       0.000303140170
 65      -0.000743237373
 66       0.000090297867
 67       0.000490961110
 68      -0.000116082772
 69       0.000059195930
 70      -0.000237889570
 71       0.995097784982
 72       0.030229035515
 73      -0.000298363809
 74      -0.000880165660
 75       0.001804548868
 76      -0.021199345253
 77       0.005793368592
 78       0.001652431298
 79      -0.003306678886
 80       0.000120905420
 81       0.001068052367
 82      -0.000044445702
 83      -0.000131316778
 84      -0.000517312060
 85       0.000222054683
 86       0.000464424765
 87       0.000019253494
 88      -0.000009404384
 89       0.000004371671
 90      -0.000006595101
 91      -0.000332277471
 92      -0.000017389905
 93       0.000004944683
 94       0.000051320687
 95      -0.000002687925
 96      -0.000118273112
 97      -0.000133843757
 98       0.000040324385
 99      -0.000138164644
100      -0.000226520734
101       0.000184722147
102      -0.000026639626
103      -0.000009328857
104      -0.000029820972
105       0.000219716690
106       0.000699015916
107       0.000007664099
108      -0.000010281946
109       0.000074695548
110      -0.000471479137
111       0.000422028462
112       0.001066885923
113      -0.000608563904
114       0.001274367752
115      -0.000058357110
116       0.000293823096
117      -0.000009235017
118       0.000011262516
119       0.000074379330
 Sym=     1a
 Ene= -1.91300921703186E+01
 Spin= Alpha
 Occup= 2.000000
  1      -0.000032508257
  2      -0.000238100691
  3      -0.000088393020
  4       0.000020696003
  5      -0.000074850310
  6      -0.000259552759
  7       0.000090481580
  8       0.000783786896
  9       0.001641082268
 10       0.000044082590
 11       0.000022659526
 12      -0.000123016568
 13       0.000077701529
 14       0.000075993583
 15       0.000017929663
 16      -0.000064387568
 17      -0.000057020537
 18       0.000047722623
 19       0.000044399767
 20       0.001843683201
 21       0.004812712905
 22       0.001110180779
 23      -0.003170287228
 24      -0.000328537192
 25      -0.000047839765
 26       0.000232243089
 27       0.000216128979
 28       0.000027187131
 29       0.000297962444
 30       0.000913209086
 31      -0.000071820463
 32       0.000026777386
 33       0.000001853951
 34       0.008288794961
 35      -0.001714606989
 36      -0.006367196196
 37       0.013045340646
 38      -0.000641892729
 39       0.000242790979
 40       0.000517750576
 41       0.000270404419
 42      -0.000125106559
 43      -0.000028123813
 44      -0.000335961331
 45       0.000008058201
 46      -0.000007911908
 47       0.000018325981
 48       0.003076880885
 49       0.000976815823
 50       0.000291479634
 51      -0.000922409390
 52      -0.000044971836
 53      -0.000117643824
 54      -0.000009143931
 55      -0.000065921253
 56       0.000034297849
 57       0.995183582950
 58       0.030581779587
 59       0.000204617570
 60       0.000980606801
 61      -0.002043245281
 62      -0.025513001075
 63      -0.000518382164
 64      -0.003279449723
 65       0.006775780286
 66      -0.000247409498
 67       0.000061265430
 68       0.000203069573
 69       0.000093846807
 70      -0.000030940864
 71       0.000507636033
 72      -0.000576320628
 73       0.000244151974
 74      -0.000018002212
 75       0.000049137788
 76       0.003074896341
 77      -0.001986567784
 78       0.000613273647
 79      -0.001295137354
 80      -0.000285262882
 81       0.000306010306
 82       0.000126516657
 83       0.000301620097
 84      -0.000150025116
 85      -0.000074779784
 86      -0.001136564036
 87      -0.000033601943
 88       0.000018733944
 89       0.000036475658
 90       0.000072122702
 91       0.000592535713
 92       0.000046660390
 93      -0.000069206139
 94      -0.000058344419
 95      -0.000261893530
 96      -0.000766582584
 97      -0.000068430926
 98      -0.000203723214
 99       0.000134381153
100      -0.000190274992
101      -0.000033421531
102      -0.000099384570
103      -0.000047352849
104       0.000011294650
105      -0.000138812208
106       0.000189705008
107       0.000055811201
108       0.000004670755
109       0.000012242578
110       0.000057615087
111       0.000185103686
112       0.000146163738
113       0.000028640337
114      -0.000053028443
115       0.000006992208
116       0.000210182431
117      -0.000011986493
118       0.000000826016
119      -0.000070735974
 Sym=     1a
 Ene= -1.43098317609213E+01
 Spin= Alpha
 Occup= 2.000000
  1       0.000044495963
  2       0.000618122829
  3      -0.000183330539
  4      -0.000260787281
  5       0.000165950687
  6      -0.000784653355
  7       0.000460340456
  8       0.000396429976
  9      -0.000285543057
 10       0.000038693368
 11       0.000022977485
 12      -0.000036576606
 13      -0.000089793378
 14       0.000097329768
 15       0.000066081492
 16       0.001075088935
 17       0.000069832143
 18       0.000100362914
 19       0.000017302951
 20      -0.010282735076
 21       0.003973943982
 22       0.002376075086
 23      -0.002560807956
 24      -0.000064304719
 25      -0.000381622306
 26      -0.000159448493
 27       0.000230651864
 28       0.000045603424
 29      -0.000008952420
 30       0.000356456544
 31      -0.000149745782
 32       0.000012344635
 33       0.000024491580
 34       0.002885779056
 35      -0.000357575877
 36      -0.000075057856
 37      -0.000678144215
 38      -0.000003673460
 39      -0.000010203714
 40      -0.000019764577
 41       0.000084101261
 42       0.000037275548
 43      -0.995146520347
 44      -0.032714082389
 45       0.000123509615
 46       0.001584843724
 47       0.001960751874
 48       0.020984842468
 49       0.004139909941
 50      -0.000242596423
 51      -0.003829147490
 52       0.000215354519
 53      -0.001087798585
 54       0.000438311828
 55       0.000556999099
 56       0.000198048324
 57       0.000008016571
 58       0.000253605362
 59      -0.000116313295
 60       0.000029809030
 61      -0.000046685604
 62      -0.000730868285
 63       0.000216142332
 64      -0.000194605738
 65       0.000479404755
 66      -0.000093240215
 67      -0.000012032850
 68       0.000089017549
 69      -0.000006105552
 70       0.000033622070
 71       0.000016843094
 72       0.000370018501
 73      -0.000115611961
 74      -0.000008995293
 75      -0.000063849874
 76      -0.001212958203
 77       0.001101841544
 78       0.000082094316
 79       0.000196376637
 80       0.000078923515
 81       0.000061213241
 82      -0.000002518256
 83      -0.000100487911
 84      -0.000050845597
 85       0.000157616445
 86       0.000132291165
 87      -0.000069397555
 88      -0.000088349311
 89       0.000052743991
 90       0.000095974560
 91       0.000472861884
 92      -0.000035725329
 93      -0.000117234632
 94       0.000089559685
 95       0.000671525243
 96       0.000544206526
 97      -0.000266882984
 98      -0.000069448061
 99       0.000203350913
100       0.000790004930
101      -0.002092752748
102      -0.000147245665
103       0.001983549617
104      -0.000248598378
105       0.000808321296
106      -0.002288026619
107       0.001293366548
108      -0.000205590189
109       0.001519824925
110      -0.000092863566
111      -0.000325592218
112       0.000004409098
113      -0.000037752176
114       0.000046558521
115       0.000030959304
116      -0.000717207712
117       0.000034469563
118       0.000068881409
119      -0.000025757467
 Sym=     1a
 Ene= -1.03102115957020E+01
 Spin= Alpha
 Occup= 2.000000
  1       0.000232814108
  2       0.001122280677
  3       0.000260510775
  4      -0.000203510479
  5       0.000243366409
  6      -0.002765247749
  7      -0.001615703089
  8       0.001353862800
  9      -0.001774048671
 10       0.000014800183
 11      -0.000049102104
 12       0.000091063865
 13      -0.000017690798
 14       0.000007992549
 15      -0.000990876862
 16       0.000562991930
 17       0.000454452499
 18      -0.000158369723
 19       0.000389828918
 20      -0.005077497653
 21      -0.004063074943
 22       0.001977920825
 23      -0.001301430937
 24      -0.000054621086
 25       0.000687745008
 26      -0.000358936636
 27       0.000435873797
 28      -0.000247916094
 29      -0.995134391972
 30      -0.036932995193
 31      -0.001311771511
 32       0.000358902310
 33      -0.000901923883
 34       0.010244575191
 35      -0.006562175875
 36       0.003857505646
 37      -0.007897018747
 38      -0.001027757832
 39       0.000757008729
 40       0.001635954293
 41      -0.000783227229
 42      -0.000364479442
 43       0.000034030204
 44       0.000520623428
 45       0.000250208681
 46       0.000017364750
 47       0.000060639225
 48      -0.001398010154
 49      -0.001454704146
 50      -0.000240194606
 51      -0.000131396016
 52       0.000054658646
 53      -0.000080884786
 54       0.000126508032
 55      -0.000135283221
 56       0.000023085173
 57      -0.000009864832
 58      -0.001136160954
 59      -0.000082133104
 60       0.000489885450
 61      -0.000936699653
 62       0.009132626754
 63       0.002038983403
 64       0.002258510954
 65      -0.004853224133
 66       0.001384801922
 67      -0.000459422192
 68      -0.001378149785
 69      -0.000195066393
 70       0.000241041406
 71      -0.000138627946
 72      -0.001097672113
 73      -0.000477059922
 74      -0.000087137471
 75       0.000090555979
 76       0.004007524796
 77      -0.002333811254
 78      -0.001546982528
 79       0.003336910376
 80      -0.000240776982
 81      -0.001424703094
 82      -0.000674970064
 83       0.001406524609
 84       0.000706586901
 85       0.000397078463
 86       0.000391799491
 87       0.000120733830
 88      -0.000070772600
 89       0.000074703913
 90      -0.000066158402
 91      -0.001389243845
 92      -0.000058148858
 93       0.000027182232
 94      -0.000016576704
 95       0.000482746768
 96      -0.000512949740
 97      -0.000171859772
 98       0.000093356445
 99      -0.000072259470
100       0.000195146562
101      -0.000142045334
102       0.000091953392
103      -0.000002237578
104       0.000023407294
105      -0.000070152171
106      -0.000688677833
107      -0.000011149200
108       0.000002219888
109       0.000026584885
110      -0.000563347769
111      -0.000001116384
112       0.000261368345
113       0.000018713449
114      -0.000057809276
115       0.000260277776
116       0.000570930271
117       0.000068520150
118      -0.000104791484
119       0.000150979360
 Sym=     1a
 Ene= -1.02240724703872E+01
 Spin= Alpha
 Occup= 2.000000
  1      -0.001531798259
  2       0.001117476782
  3      -0.000057278293
  4      -0.000181809426
  5       0.000041203300
  6      -0.010756935750
  7       0.000260886350
  8       0.004513342360
  9      -0.002391475959
 10      -0.000446134321
 11       0.000012567364
 12      -0.000172422747
 13      -0.000695466582
 14       0.000095067132
 15      -0.995512878158
 16      -0.040084747636
 17      -0.000086020545
 18       0.000210064697
 19      -0.000030221705
 20       0.042456659068
 21       0.001966587786
 22       0.002440231307
 23       0.004987961361
 24      -0.000354361527
 25       0.000289673860
 26      -0.000693005648
 27       0.000025674669
 28       0.000009257059
 29       0.000958496474
 30       0.001347213049
 31      -0.000180844897
 32       0.000045652861
 33      -0.000237161400
 34      -0.010921560756
 35       0.008281413055
 36      -0.001563397254
 37       0.001716298141
 38       0.000007245149
 39       0.000752350806
 40      -0.000113579433
 41       0.000421474682
 42      -0.000194895906
 43       0.000000093649
 44       0.000490531519
 45       0.000362582087
 46       0.000151397489
 47      -0.000156363803
 48      -0.006741235946
 49      -0.002516664657
 50      -0.001060835447
 51       0.000852103487
 52      -0.000058513855
 53      -0.000921872269
 54      -0.000212242203
 55       0.000730352376
 56       0.000207381718
 57      -0.000005468529
 58       0.000093249973
 59       0.000041612172
 60       0.000053178873
 61      -0.000119718824
 62       0.001112778327
 63      -0.001432233581
 64       0.000257823266
 65      -0.000276724602
 66       0.000016775023
 67       0.000304237385
 68       0.000104650318
 69      -0.000217997335
 70      -0.000125146776
 71       0.000035083799
 72       0.000743344676
 73      -0.000308494268
 74      -0.000062655664
 75      -0.000034880895
 76      -0.002446474674
 77       0.001368351308
 78       0.000490643771
 79      -0.000335556670
 80      -0.000047951683
 81      -0.000087016435
 82       0.000185190975
 83      -0.000174816539
 84      -0.000000966092
 85       0.000651470483
 86       0.000319598217
 87       0.000019369142
 88       0.000042035265
 89      -0.000090705398
 90       0.000465515130
 91       0.000091861596
 92       0.000048530708
 93      -0.000034660545
 94       0.000122785167
 95       0.000773951454
 96      -0.004311696328
 97      -0.000253352797
 98       0.000820086227
 99       0.001253933014
100       0.000333577090
101      -0.000468620598
102      -0.000112946232
103       0.000114095598
104       0.000075339823
105       0.000325036720
106      -0.000443836185
107      -0.000050067742
108      -0.000040132731
109       0.000173463777
110       0.000083247695
111      -0.001068104386
112       0.000033089251
113       0.000020471002
114      -0.000093925097
115       0.000469291481
116      -0.000237305299
117      -0.000043506532
118      -0.000018164258
119       0.000093644793
 Sym=     1a
 Ene= -1.01766709542392E+01
 Spin= Alpha
 Occup= 2.000000
  1      -0.995138102382
  2      -0.038379992417
  3       0.000020893913
  4      -0.000277900611
  5       0.000026789718
  6       0.029017450712
  7      -0.000085763807
  8      -0.002021571896
  9       0.000867666956
 10      -0.000302421932
 11       0.000021425207
 12      -0.000241213613
 13      -0.000586011264
 14       0.000013747434
 15       0.001523826974
 16       0.000281691714
 17      -0.000031890877
 18       0.000333529263
 19       0.000001248604
 20      -0.002499506307
 21       0.000605929764
 22      -0.003342924309
 23       0.002157133389
 24      -0.000467632010
 25       0.000024689806
 26      -0.000414403553
 27      -0.000544882970
 28       0.000008817849
 29      -0.000022415297
 30       0.001131663619
 31      -0.000131133244
 32       0.000222888823
 33      -0.000191575291
 34      -0.003568426297
 35       0.001411457914
 36      -0.001608798035
 37       0.001984407477
 38       0.000109693422
 39       0.000001114506
 40       0.000111552708
 41      -0.000002156463
 42      -0.000000338077
 43       0.000035951341
 44       0.000580989598
 45       0.000123572498
 46       0.000250534634
 47      -0.000100179166
 48      -0.001254879443
 49      -0.000641550042
 50      -0.001304580564
 51       0.000691229075
 52       0.000094961270
 53       0.000018871437
 54       0.000143372218
 55       0.000039438656
 56      -0.000043695356
 57       0.000007986096
 58       0.000089195647
 59       0.000055722303
 60      -0.000088623670
 61      -0.000011451707
 62      -0.000706409086
 63      -0.000390401326
 64       0.000296995830
 65       0.000138755716
 66      -0.000007900800
 67       0.000057870687
 68      -0.000025219227
 69      -0.000041766592
 70      -0.000043923358
 71      -0.000014664041
 72      -0.000086216442
 73      -0.000057780284
 74       0.000054895488
 75       0.000048338710
 76       0.000986257065
 77      -0.000284691469
 78       0.000000652320
 79      -0.000175917817
 80      -0.000003949537
 81       0.000095721162
 82       0.000077173348
 83       0.000075738785
 84      -0.000011367346
 85       0.000906044723
 86      -0.004790300212
 87       0.000073329149
 88      -0.000689325258
 89      -0.001300285265
 90       0.001030164982
 91      -0.004370203327
 92       0.001247970273
 93      -0.000254143834
 94       0.000851392883
 95       0.000320612126
 96      -0.000204926933
 97       0.000002343270
 98      -0.000056780634
 99       0.000114390528
100      -0.000066152479
101      -0.001009547590
102      -0.000023279075
103      -0.000025176525
104       0.000018921132
105       0.000240031380
106       0.000371321660
107       0.000120743831
108       0.000127067219
109      -0.000051246239
110      -0.000082403818
111      -0.000212026896
112       0.000077907644
113       0.000001214358
114       0.000021894075
115       0.001051610943
116      -0.004447844404
117      -0.001316613976
118      -0.000229155276
119       0.000727767668
 Sym=     1a
 Ene= -1.10109948300465E+00
 Spin= Alpha
 Occup= 2.000000
  1      -0.004138278249
  2       0.007443184546
  3       0.002311841213
  4      -0.004959556948
  5       0.001873612591
  6       0.003725299503
  7       0.000695155073
  8      -0.000353494574
  9       0.000122614986
 10      -0.000510396145
 11       0.000226622845
 12      -0.000414543485
 13      -0.000464770338
 14      -0.000471335103
 15      -0.018187065803
 16       0.035211447167
 17       0.019580099637
 18      -0.005595634626
 19       0.013587870062
 20       0.013237872733
 21      -0.001690138498
 22      -0.000475439782
 23       0.000901328576
 24      -0.000656138827
 25       0.003206748778
 26      -0.001477582955
 27       0.002935107880
 28      -0.001299878327
 29      -0.113697026578
 30       0.217600595722
 31       0.088956817859
 32      -0.014167197585
 33       0.029211117757
 34       0.045298285599
 35      -0.025166054181
 36       0.002124364064
 37      -0.006366320898
 38       0.004100931175
 39      -0.010956651272
 40      -0.011613248215
 41       0.010817246530
 42       0.005655021904
 43      -0.005675780412
 44       0.013251078052
 45       0.006520939495
 46      -0.000779857756
 47      -0.001618397104
 48       0.004397050335
 49      -0.005038348778
 50      -0.000152360672
 51      -0.002019959822
 52       0.000004244983
 53      -0.000218210095
 54      -0.000075699085
 55       0.000522968968
 56       0.000022112819
 57      -0.092175633781
 58       0.200517714965
 59       0.016899938813
 60       0.038464025940
 61      -0.079701517153
 62       0.176499800765
 63       0.014088135589
 64       0.013196923220
 65      -0.028065443872
 66       0.005564710864
 67      -0.003433722808
 68      -0.004807969703
 69      -0.001951249182
 70       0.001813984177
 71      -0.169079457101
 72       0.372441594460
 73      -0.043100935286
 74      -0.043250373133
 75       0.088509445426
 76       0.353283262431
 77      -0.031848476947
 78      -0.019070937880
 79       0.039092949887
 80       0.000031167676
 81      -0.006551701272
 82      -0.004266899173
 83       0.006541068410
 84       0.003279040457
 85       0.001503642373
 86       0.000422434558
 87       0.000057180388
 88      -0.000177754510
 89      -0.000184904407
 90       0.000869948174
 91      -0.000080621367
 92       0.000072509469
 93      -0.000032617015
 94       0.000050777298
 95       0.007058506742
 96       0.000666239063
 97       0.000426195162
 98       0.000643749225
 99       0.000961581849
100       0.004511668050
101      -0.000477465501
102       0.000469160586
103       0.000531192999
104       0.000003134313
105       0.001633835779
106      -0.003069819376
107       0.000265371731
108      -0.000026645709
109      -0.000012607837
110       0.106617881336
111       0.010749468381
112      -0.015462256709
113       0.004720793663
114      -0.010101965278
115       0.002688368701
116       0.000497152704
117       0.000087792170
118      -0.000405968004
119       0.000313705596
 Sym=     1a
 Ene= -1.00628418272166E+00
 Spin= Alpha
 Occup= 2.000000
  1      -0.000537237623
  2       0.003484273967
  3      -0.001188170221
  4      -0.001447908826
  5       0.001689788254
  6      -0.002353709428
  7      -0.003075429512
  8       0.000225114954
  9      -0.008709466096
 10      -0.000011046545
 11      -0.000166394103
 12       0.000188063877
 13      -0.000497797201
 14       0.000349752469
 15      -0.011326825114
 16       0.019629168470
 17      -0.003753095973
 18      -0.008118666591
 19       0.016306382900
 20       0.011907212080
 21      -0.014677385269
 22      -0.003841333415
 23       0.012436808667
 24       0.002016116851
 25       0.001432107703
 26      -0.002182340717
 27      -0.000374925686
 28      -0.000605289290
 29      -0.058624524934
 30       0.112736596988
 31      -0.090248310907
 32      -0.095154982760
 33       0.192273103451
 34       0.042418486365
 35       0.010963654049
 36       0.014521782687
 37      -0.029668020751
 38       0.022007553913
 39       0.006423460856
 40      -0.015893228540
 41      -0.013327688983
 42      -0.002997951200
 43      -0.012274323601
 44       0.025215912483
 45       0.008333468287
 46      -0.002920307023
 47      -0.003293834873
 48       0.010991294037
 49       0.003554839291
 50      -0.002514917680
 51       0.003632004604
 52      -0.000599409930
 53       0.000081084268
 54      -0.000365973262
 55       0.001212076783
 56      -0.000381328563
 57      -0.172483176007
 58       0.376897536988