
                                 *****************
                                 * O   R   C   A *
                                 *****************

                                            #,                                       
                                            ###                                      
                                            ####                                     
                                            #####                                    
                                            ######                                   
                                           ########,                                 
                                     ,,################,,,,,                         
                               ,,#################################,,                 
                          ,,##########################################,,             
                       ,#########################################, ''#####,          
                    ,#############################################,,   '####,        
                  ,##################################################,,,,####,       
                ,###########''''           ''''###############################       
              ,#####''   ,,,,##########,,,,          '''####'''          '####       
            ,##' ,,,,###########################,,,                        '##       
           ' ,,###''''                  '''############,,,                           
         ,,##''                                '''############,,,,        ,,,,,,###''
      ,#''                                            '''#######################'''  
     '                                                          ''''####''''         
             ,#######,   #######,   ,#######,      ##                                
            ,#'     '#,  ##    ##  ,#'     '#,    #''#        ,####,    ,#,          
            ##       ##  ##   ,#'  ##            #'  '#       #'       ,# #          
            ##       ##  #######   ##           ,######,      #####,      #          
            '#,     ,#'  ##    ##  '#,     ,#' ,#      #,     #,   #      #          
             '#######'   ##     ##  '#######'  #'      '#     '####' #    #          



                #########################################################
                #                        -***-                          #
                #          Department of theory and spectroscopy        #
                #                                                       #
                #                      Frank Neese                      #
                #                                                       #
                #     Directorship, Architecture, Infrastructure        #
                #                    SHARK, DRIVERS                     #
                #        Core code/Algorithms in most modules           #
                #                                                       #
                #        Max Planck Institute fuer Kohlenforschung      #
                #                Kaiser Wilhelm Platz 1                 #
                #                 D-45470 Muelheim/Ruhr                 #
                #                      Germany                          #
                #                                                       #
                #                  All rights reserved                  #
                #                        -***-                          #
                #########################################################


                         Program Version 6.1.1  -  RELEASE   -
                                (GIT: $487d211c$)
                          ($2025-11-21 10:33:24 +0100$)
                                                                         
                                  - NO-DMRG VERSION -                    
                                                                         


 With contributions from (in alphabetic order):
[Max-Planck-Institut fuer Kohlenforschung]                               
  Daniel Aravena         : Magnetic Suceptibility                        
  Michael Atanasov       : Ab Initio Ligand Field Theory (pilot matlab implementation)
  Alexander A. Auer      : GIAO ZORA, VPT2 properties, NMR spectrum      
  Ute Becker             : All parallelization in ORCA, NUMFREQ, NUMCALC 
  Giovanni Bistoni       : ED, misc. LED, open-shell LED, HFLD           
  Dmytro Bykov           : pre 5.0 version of the SCF Hessian            
  Marcos Casanova-Páez   : Triplet and SCS-CIS(D). UHF-(DLPNO)-IP/EA/STEOM-CCSD. UHF-CVS-IP/STEOM-CCSD   
  Vijay G. Chilkuri      : MRCI spin determinant printing, contributions to CSF-ICE 
  Pauline Colinet        : FMM embedding                                 
  Dipayan Datta          : RHF DLPNO-CCSD density                        
  Achintya Kumar Dutta   : EOM-CC, STEOM-CC                              
  Nicolas Foglia         : Exact transition moments, OPA infrastructure, MCD improvements    
  Dmitry Ganyushin       : Spin-Orbit,Spin-Spin,Magnetic field MRCI      
  Miquel Garcia-Rates    : C-PCM and meta-GGA Hessian, CCSD/C-PCM, Gaussian charge scheme 
  Tiago L. C. Gouveia    : GS-ROHF, GS-ROCIS                             
  Yang Guo               : DLPNO-NEVPT2, F12-NEVPT2, CIM, IAO-localization        
  Andreas Hansen         : Spin unrestricted coupled pair/coupled cluster methods 
  Ingolf Harden          : AUTO-CI MPn and infrastructure                
  Benjamin Helmich-Paris : MC-RPA, TRAH-(SCF,CASSCF), AVAS, COSX integrals, SCF dyn. polar., MC-PDFT, srDFT 
  Lee Huntington         : MR-EOM, pCC                                   
  Robert Izsak           : Overlap fitted RIJCOSX, COSX-SCS-MP3, EOM     
  Riya Kayal             : Wick's Theorem for AUTO-CI, AUTO-CI UHF-CCSDT 
  Emily Kempfer          : AUTO-CI RHF CISDT and CCSDT, approximate NEVPT4
  Christian Kollmar      : KDIIS, OOCD, Brueckner-CCSD(T), CCSD density, CASPT2, CASPT2-K, improved NEVPT2 
  Axel Koslowski         : Symmetry handling                             
  Simone Kossmann        : meta-GGA functionals, TD-DFT gradient, OOMP2, (MP2 Hessian; deprecated post 5.0) 
  Lucas Lang             : DCDCAS, Hyperfine gauge corrections, ICE-SOC+SSC
  Marvin Lechner         : AUTO-CI (C++ implementation), FIC-MRCC        
  Spencer Leger          : CASSCF response                               
  Dagmar Lenk            : GEPOL surface, SMD, ORCA-2-JSON               
  Dimitrios Liakos       : Extrapolation schemes; Compound Job, Property file
  Dimitrios Manganas     : Further ROCIS development; embedding schemes. LFT, Crystal Embedding 
  Dimitrios Pantazis     : SARC Basis sets                               
  Anastasios Papadopoulos: AUTO-CI, single reference methods and gradients 
  Taras Petrenko         : pre 6.0 DFT Hessian and TD-DFT gradient,  ECA, NRVS 
  Petra Pikulova         : Analytic Raman intensities                    
  Peter Pinski           : DLPNO-MP2, DLPNO-MP2 Gradient                 
  Shashank Vittal Rao    : ES-AILFT, MagRelax                            
  Christoph Reimann      : Effective Core Potentials                     
  Marius Retegan         : Local ZFS, SOC                                
  Christoph Riplinger    : Optimizer, TS searches, QM/MM, DLPNO-CCSD(T), (RO)-DLPNO pert. Triples 
  Michael Roemelt        : Original ROCIS implementation, recursive CI coupling coefficients
  Masaaki Saitow         : Open-shell DLPNO-CCSD energy and density      
  Barbara Sandhoefer     : DKH picture change effects                    
  Yorick L. A. Schmerwitz: GMF and freeze-and-release deltaSCF, NEB S-IDPP initial path                    
  Kantharuban Sivalingam : CASSCF convergence/infrastructure, NEVPT2, NEVPT3, NEVPT4(SD), FIC-MRCI and CEPA variants
  Bernardo de Souza      : ESD, SOC TD-DFT                               
  Georgi L. Stoychev     : AutoAux, RI-MP2 NMR, DLPNO-MP2 response, X2C  
  Van Anh Tran           : RI-MP2 g-tensors                              
  Willem Van den Heuvel  : Paramagnetic NMR                              
  Zikuan Wang            : NOTCH, Electric field optimization            
  Frank Wennmohs         : Technical directorship and infrastructure     
  Hang Xu                : AUTO-CI-Response properties                   
                                                                         
[FACCTs GmbH]                                                            
  Markus Bursch, Nicolas Foglia, Miquel Garcia-Rates, Ingolf Harden, Hagen Neugebauer, Anastasios Papadopoulos, 
  Christoph Riplinger, Bernardo de Souza, Georgi L. Stoychev                                                    
                                                                 
  APM, various basis sets, CI-OPT, improved COSX, DLPNO-Multilevel,           
  DOCKER, DRACO, updates on ESD, Fragmentator, GOAT, IRC, LR-CPCM, L-BFGS, MBIS, meta-GGA TD-DFT gradient, ML-optimized integration grids, 
  MM, NACMEs, nearIR, NEB, NEB-TS, NL-DFT gradient (VV10), 2- and 3-layer-ONIOM, interface openCOSMO-RS, QMMM,   
  Crystal-QMMM, RESP, rigid body optimization, SF, symmetry and pop. for TD-DFT, various functionals, SOLVATOR                                   
                                                                         
[Other institutions]                                                     
  V. Asgeirsson          : NEB                                           
  Christoph Bannwarth    : sTDA-DFT, sTD-DFT, PBEh-3c, B97-3c, D3        
  Giovanni Bistoni       : ETS/NOCV, ADLD/ADEX, COVALED                  
  Martin Brehm           : Molecular dynamics                            
  Ronald Cardenas        : ETS/NOCV                                      
  Martina Colucci        : COVALED                                       
  Sebastian Ehlert       : rSCAN, r2SCAN, r2SCAN-3c, D4, dhf basis sets  
  Marvin Friede          : D4 for Fr, Ra, Ac-Lr                          
  Lars Goerigk           : TD-DFT with DH, B97 family of functionals     
  Stefan Grimme          : VdW corrections, initial TS optimization, DFT functionals, gCP, sTDA/sTD-DF 
  Waldemar Hujo          : DFT-NL                                        
  H. Jonsson             : NEB                                           
  Holger Kruse           : gCP                                           
  Marcel Mueller         : wB97X-3c, vDZP basis set                      
  Hagen Neugebauer       : wr2SCAN, Native XTB                           
  Gianluca Regni         : ADLD/ADEX                                     
  Tobias Risthaus        : pre 6.0 range-separated hybrid DFT and stability analysis
  Lukas Wittmann         : regularized MP2, r2SCAN double-hybrids, wr2SCAN        
                                                                         
We gratefully acknowledge several colleagues who have allowed us to      
interface, adapt or use parts of their codes:                            
  Ed Valeev, F. Pavosevic, A. Kumar             : LibInt (2-el integral package), F12 methods 
  Garnet Chan, S. Sharma, J. Yang, R. Olivares  : DMRG                   
  Ulf Ekstrom                                   : XCFun DFT Library      
  Mihaly Kallay                                 : mrcc  (arbitrary order and MRCC methods)
  Frank Weinhold                                : gennbo (NPA and NBO analysis)           
  Simon Mueller                                 : openCOSMO-RS                            
  Christopher J. Cramer and Donald G. Truhlar   : smd solvation model                     
  S Lehtola, MJT Oliveira, MAL Marques          : LibXC Library                           
  Liviu Ungur et al                             : ANISO software                          


 Your calculation uses the libint2 library for the computation of 2-el integrals
 For citations please refer to: http://libint.valeyev.net

 Your ORCA version has been built with support for libXC version: 7.0.0
 For citations please refer to: https://libxc.gitlab.io

 This ORCA versions uses:
   CBLAS   interface :  Fast vector & matrix operations
   LAPACKE interface :  Fast linear algebra routines
   SCALAPACK package :  Parallel linear algebra routines
   Shared memory     :  Shared parallel matrices
   BLAS/LAPACK       :  OpenBLAS 0.3.29  USE64BITINT DYNAMIC_ARCH NO_AFFINITY SkylakeX SINGLE_THREADED
        Core in use  :  SkylakeX
   Copyright (c) 2011-2014, The OpenBLAS Project


  ***********************************
  * Starting time: Mon Mar  9 19:44:40 2026
  * Host name:     98d41d73d7f8
  * Process ID:    54
  * Working dir.:  /kaggle/working
  ***********************************

NOTE: MaxCore=3000 MB was set to SCF,MP2,MDCI,CIPSI,MRCI,RASCI and CIS
      => If you want to overwrite this, your respective input block should be placed after the MaxCore statement
Your calculation utilizes the atom-pairwise dispersion correction
with the Becke-Johnson damping scheme (D3BJ)


Your calculation utilizes the SMD solvation module
Please cite in your paper:
Marenich, A. V.; Cramer, C. J.; Truhlar, D. G. J. Phys. Chem. B 2009, 113, 6378 

Warning: RI is on but no J-basis has been assigned. Assigning Def2/J (nothing to worry about!)
================================================================================

----- Orbital basis set information -----
Your calculation utilizes the basis: 6-31G(d,p)
   H-He, Li-Ne : W. J. Hehre, R. Ditchfield and J.A. Pople, J. Chem. Phys. 56, 2257 (1972).
                 Note: He and Ne are unpublished basis sets taken from the Gaussian program.
                 Note: Li and B from J. D. Dill and J. A. Pople, J. Chem. Phys. 62, 2921 (1975).
   Na - Ar     : M. M. Francl, W. J. Pietro, W. J. Hehre, J. S. Binkley, M. S. Gordon, 
                 D. J. DeFrees and J. A. Pople, J. Chem. Phys. 77, 3654 (1982).
   K - Zn      : V. A. Rassolov, J. A. Pople, M. A. Ratner, and T. L. Windus, J. Chem. Phys. 109, 1223 (1998).

----- AuxJ basis set information -----
Your calculation utilizes the auxiliary basis: def2/J
   H-Rn: F. Weigend, Phys. Chem. Chem. Phys. 8, 1057 (2006).
   Fr-Lr: K. Eichkorn, F. Weigend, O. Treutler, R. Ahlrichs; Theor. Chem. Acc. 97, 119 (1997).

================================================================================
                                        WARNINGS
                       Please study these warnings very carefully!
================================================================================


WARNING: Geometry Optimization
  ===> : Switching off AutoStart
         For restart on a previous wavefunction, please use MOREAD

================================================================================
                                       INPUT FILE
================================================================================
NAME = /kaggle/working/GlcNAc/GlcNAc_InterFrag.inp
|  1> 
|  2> !RKS B3LYP 6-31G(d,p) TightSCF Opt D3BJ
|  3>  
|  4> %pal nprocs 2 end
|  5> %maxcore 3000
|  6> 
|  7> %cpcm
|  8>   smd true
|  9>   SMDsolvent "WATER"
| 10>   end
| 11> 
| 12> %scf
| 13>   MaxIter 400
| 14>   SOSCF Start 0.00033
| 15>   end
| 16> end
| 17> 
| 18> %output
| 19>   PrintLevel Normal
| 20>   Print[ P_OrbEn ] 2        # print ALL orbital energies (not just up to LUMO+9) :contentReference[oaicite:10]{index=10}
| 21>   XYZFile true              # writes basename.xyz (handy for reuse) :contentReference[oaicite:11]{index=11}
| 22>   end
| 23> 
| 24> *xyz 0 1
| 25> 8        1.553600000     -1.154900000      0.282700000
| 26> 8       -0.938700000      2.105200000      0.313400000
| 27> 8        1.824800000      2.435200000     -0.435000000
| 28> 8       -0.249700000     -2.628100000      0.294400000
| 29> 8        4.267200000     -1.053200000     -0.117600000
| 30> 8       -3.313600000      0.496800000      1.136500000
| 31> 7       -1.999100000     -0.493900000     -0.509200000
| 32> 6       -0.144300000      1.083700000     -0.293000000
| 33> 6       -0.709300000     -0.280500000      0.114100000
| 34> 6        1.306900000      1.249900000      0.163300000
| 35> 6        2.143900000      0.034700000     -0.244300000
| 36> 6        0.256900000     -1.411800000     -0.253800000
| 37> 6        3.569200000      0.108100000      0.294000000
| 38> 6       -3.190700000     -0.084000000      0.061300000
| 39> 6       -4.377100000     -0.407200000     -0.807000000
| 40> 1       -0.218400000      1.230500000     -1.377600000
| 41> 1       -0.870300000     -0.289700000      1.201000000
| 42> 1        1.328800000      1.387600000      1.252000000
| 43> 1        2.198000000     -0.054300000     -1.337800000
| 44> 1        0.326400000     -1.536100000     -1.342100000
| 45> 1        3.584100000      0.138000000      1.388600000
| 46> 1        4.106100000      0.979300000     -0.090400000
| 47> 1       -2.016200000     -0.906700000     -1.437700000
| 48> 1       -0.884400000      1.997700000      1.278300000
| 49> 1        2.670200000      2.641200000     -0.002400000
| 50> 1        0.114200000     -3.354500000     -0.239800000
| 51> 1        3.784800000     -1.824100000      0.227200000
| 52> 1       -5.298000000     -0.292900000     -0.228600000
| 53> 1       -4.400100000      0.275900000     -1.660400000
| 54> 1       -4.316800000     -1.438400000     -1.166700000
| 55> *
| 56> 
| 57>                          ****END OF INPUT****
================================================================================

                       *****************************
                       * Geometry Optimization Run *
                       *****************************

Geometry optimization settings:
Update method            Update   .... BFGS
Choice of coordinates    CoordSys .... (2022) Redundant Internals
Initial Hessian          InHess   .... Almloef's Model
Max. no of cycles        MaxIter  .... 90

Convergence Tolerances:
Energy Change            TolE     ....  5.0000e-06 Eh
Max. Gradient            TolMAXG  ....  3.0000e-04 Eh/bohr
RMS Gradient             TolRMSG  ....  1.0000e-04 Eh/bohr
Max. Displacement        TolMAXD  ....  4.0000e-03 bohr
RMS Displacement         TolRMSD  ....  2.0000e-03 bohr
Strict Convergence                .... False

------------------------------------------------------------------------------
                        ORCA OPTIMIZATION COORDINATE SETUP
------------------------------------------------------------------------------

The optimization will be done in redundant internal coordinates (2022)
Making redundant internal coordinates   ...  (2022 redundants) done
Evaluating the initial hessian          ...  (Almloef) done
Evaluating the coordinates              ...  done
Calculating the B-matrix                .... done
Calculating the G-matrix                .... done
The number of degrees of freedom        ....  146

    -----------------------------------------------------------------
                    Redundant Internal Coordinates


    -----------------------------------------------------------------
         Definition                    Initial Value    Approx d2E/dq
    -----------------------------------------------------------------
      1. B(C   7,O   1)                  1.4291         0.484768   
      2. B(C   8,C   7)                  1.5317         0.371297   
      3. B(C   8,N   6)                  1.4483         0.451681   
      4. B(C   9,O   2)                  1.4252         0.491766   
      5. B(C   9,C   7)                  1.5303         0.373165   
      6. B(C  10,C   9)                  1.5308         0.372448   
      7. B(C  10,O   0)                  1.4288         0.485344   
      8. B(C  11,C   8)                  1.5326         0.370081   
      9. B(C  11,O   3)                  1.4271         0.488337   
     10. B(C  11,O   0)                  1.4266         0.489149   
     11. B(C  12,C  10)                  1.5253         0.380038   
     12. B(C  12,O   4)                  1.4161         0.508502   
     13. B(C  13,N   6)                  1.3833         0.573633   
     14. B(C  13,O   5)                  1.2282         1.013932   
     15. B(C  14,C  13)                  1.5053         0.409048   
     16. B(H  15,C   7)                  1.0970         0.350964   
     17. B(H  16,C   8)                  1.0988         0.348647   
     18. B(H  17,C   9)                  1.0976         0.350195   
     19. B(H  18,C  10)                  1.0984         0.349095   
     20. B(H  19,C  11)                  1.0976         0.350213   
     21. B(H  20,C  12)                  1.0951         0.353404   
     22. B(H  21,C  12)                  1.0932         0.355935   
     23. B(H  22,N   6)                  1.0163         0.422852   
     24. B(H  23,O   1)                  0.9724         0.496825   
     25. B(H  24,O   2)                  0.9717         0.498007   
     26. B(H  25,O   3)                  0.9723         0.496907   
     27. B(H  26,O   0)                  2.3301         0.010000   
     28. B(H  26,O   4)                  0.9726         0.496500   
     29. B(H  27,C  14)                  1.0935         0.355544   
     30. B(H  28,C  14)                  1.0934         0.355676   
     31. B(H  29,C  14)                  1.0938         0.355111   
     32. A(C  10,O   0,C  11)          112.7526         0.393337   
     33. A(C   7,O   1,H  23)          108.1194         0.352164   
     34. A(C   9,O   2,H  24)          107.7923         0.353161   
     35. A(C  11,O   3,H  25)          107.0269         0.352611   
     36. A(C  12,O   4,H  26)          107.6080         0.354987   
     37. A(C  13,N   6,H  22)          118.8608         0.352588   
     38. A(C   8,N   6,C  13)          123.0932         0.399420   
     39. A(C   8,N   6,H  22)          117.9063         0.338707   
     40. A(O   1,C   7,C   9)          108.8441         0.377551   
     41. A(C   8,C   7,H  15)          110.9196         0.322630   
     42. A(O   1,C   7,H  15)          106.6385         0.335124   
     43. A(C   9,C   7,H  15)          110.1410         0.322896   
     44. A(C   8,C   7,C   9)          111.5487         0.362904   
     45. A(O   1,C   7,C   8)          108.5909         0.377223   
     46. A(C   7,C   8,H  16)          108.9303         0.322280   
     47. A(N   6,C   8,H  16)          107.0964         0.330854   
     48. A(C   7,C   8,C  11)          111.1681         0.362390   
     49. A(N   6,C   8,C  11)          110.4488         0.372438   
     50. A(N   6,C   8,C   7)          110.2034         0.372648   
     51. A(C  11,C   8,H  16)          108.8839         0.322107   
     52. A(C  10,C   9,H  17)          110.6578         0.322678   
     53. A(C   7,C   9,C  10)          110.6646         0.363096   
     54. A(C   7,C   9,H  17)          109.1661         0.322780   
     55. A(O   2,C   9,C  10)          110.4715         0.378362   
     56. A(O   2,C   9,H  17)          107.7471         0.335801   
     57. A(O   2,C   9,C   7)          108.0448         0.378489   
     58. A(O   0,C  10,H  18)          108.6677         0.334893   
     59. A(O   0,C  10,C  12)          107.2150         0.378823   
     60. A(O   0,C  10,C   9)          109.6842         0.377503   
     61. A(C  12,C  10,H  18)          108.0107         0.323580   
     62. A(C   9,C  10,H  18)          110.8737         0.322512   
     63. A(C   9,C  10,C  12)          112.2558         0.364230   
     64. A(O   3,C  11,C   8)          108.2480         0.377488   
     65. A(O   0,C  11,C   8)          110.4769         0.377597   
     66. A(O   0,C  11,O   3)          109.3707         0.393761   
     67. A(C   8,C  11,H  19)          111.1952         0.322344   
     68. A(O   3,C  11,H  19)          107.8695         0.335413   
     69. A(O   0,C  11,H  19)          109.6165         0.335506   
     70. A(H  20,C  12,H  21)          108.8465         0.289455   
     71. A(C  10,C  12,H  21)          111.9123         0.324613   
     72. A(O   4,C  12,H  21)          108.0153         0.338594   
     73. A(C  10,C  12,H  20)          111.5166         0.324233   
     74. A(O   4,C  12,H  20)          107.8312         0.338191   
     75. A(O   4,C  12,C  10)          108.5752         0.381897   
     76. A(N   6,C  13,C  14)          112.1738         0.395050   
     77. A(O   5,C  13,C  14)          121.8457         0.437163   
     78. A(O   5,C  13,N   6)          125.9715         0.461764   
     79. A(H  28,C  14,H  29)          109.4810         0.289641   
     80. A(H  27,C  14,H  29)          108.5981         0.289624   
     81. A(C  13,C  14,H  29)          110.4055         0.328443   
     82. A(H  27,C  14,H  28)          109.2593         0.289696   
     83. A(C  13,C  14,H  28)          109.4306         0.328529   
     84. A(C  13,C  14,H  27)          109.6457         0.328509   
     85. D(C   8,C   7,O   1,H  23)     60.7063         0.018547   
     86. D(H  15,C   7,O   1,H  23)   -179.7099         0.018547   
     87. D(C   9,C   7,O   1,H  23)    -60.9119         0.018547   
     88. D(C   7,C   8,N   6,H  22)     87.4788         0.017406   
     89. D(C  11,C   8,C   7,C   9)    -48.1443         0.011016   
     90. D(C  11,C   8,N   6,H  22)    -35.7422         0.017406   
     91. D(C  11,C   8,C   7,H  15)     75.0365         0.011016   
     92. D(N   6,C   8,C   7,C   9)   -170.9445         0.011016   
     93. D(C   7,C   8,N   6,C  13)    -88.1702         0.017406   
     94. D(N   6,C   8,C   7,H  15)    -47.7638         0.011016   
     95. D(C  11,C   8,N   6,C  13)    148.6088         0.017406   
     96. D(C  11,C   8,C   7,O   1)   -168.0921         0.011016   
     97. D(N   6,C   8,C   7,O   1)     69.1076         0.011016   
     98. D(H  16,C   8,N   6,C  13)     30.1797         0.017406   
     99. D(C   7,C   9,O   2,H  24)    168.1769         0.019100   
    100. D(C  10,C   9,C   7,C   8)     49.5871         0.011121   
    101. D(O   2,C   9,C   7,H  15)     47.0285         0.011121   
    102. D(O   2,C   9,C   7,C   8)    170.6514         0.011121   
    103. D(O   2,C   9,C   7,O   1)    -69.5501         0.011121   
    104. D(C  10,C   9,C   7,O   1)    169.3856         0.011121   
    105. D(C  10,C   9,O   2,H  24)    -70.6389         0.019100   
    106. D(C  10,C   9,C   7,H  15)    -74.0358         0.011121   
    107. D(H  17,C   9,O   2,H  24)     50.3494         0.019100   
    108. D(C  12,C  10,C   9,O   2)     65.1850         0.011080   
    109. D(O   0,C  10,C   9,H  17)     65.0245         0.011080   
    110. D(O   0,C  10,C   9,C   7)    -56.1197         0.011080   
    111. D(O   0,C  10,C   9,O   2)   -175.7353         0.011080   
    112. D(C  12,C  10,O   0,C  11)   -174.1215         0.020162   
    113. D(C   9,C  10,O   0,C  11)     63.7407         0.020162   
    114. D(C  12,C  10,C   9,C   7)   -175.1994         0.011080   
    115. D(H  18,C  10,O   0,C  11)    -57.6118         0.020162   
    116. D(C  12,C  10,C   9,H  17)    -54.0552         0.011080   
    117. D(O   3,C  11,C   8,H  16)     53.0247         0.010948   
    118. D(O   3,C  11,C   8,N   6)    -64.3072         0.010948   
    119. D(O   0,C  11,C   8,H  16)    -66.7058         0.010948   
    120. D(O   0,C  11,C   8,C   7)     53.3035         0.010948   
    121. D(O   0,C  11,C   8,N   6)    175.9624         0.010948   
    122. D(H  19,C  11,O   3,H  25)     35.2796         0.018828   
    123. D(C   8,C  11,O   3,H  25)    155.6964         0.018828   
    124. D(O   0,C  11,O   3,H  25)    -83.8808         0.018828   
    125. D(H  19,C  11,O   0,C  10)     60.5230         0.020489   
    126. D(O   3,C  11,C   8,C   7)    173.0340         0.010948   
    127. D(C   8,C  11,O   0,C  10)    -62.3516         0.020489   
    128. D(O   3,C  11,O   0,C  10)    178.5969         0.020489   
    129. D(H  20,C  12,C  10,H  18)   -176.6023         0.011511   
    130. D(H  20,C  12,C  10,C   9)     60.8583         0.011511   
    131. D(H  20,C  12,C  10,O   0)    -59.6600         0.011511   
    132. D(O   4,C  12,C  10,H  18)    -57.9346         0.011511   
    133. D(O   4,C  12,C  10,C   9)    179.5260         0.011511   
    134. D(O   4,C  12,C  10,O   0)     59.0077         0.011511   
    135. D(H  21,C  12,O   4,H  26)   -179.9936         0.020465   
    136. D(H  20,C  12,O   4,H  26)     62.5264         0.020465   
    137. D(C  10,C  12,O   4,H  26)    -58.4409         0.020465   
    138. D(C  14,C  13,N   6,H  22)      3.3297         0.026355   
    139. D(C  14,C  13,N   6,C   8)    178.9392         0.026355   
    140. D(O   5,C  13,N   6,H  22)   -175.5941         0.026355   
    141. D(O   5,C  13,N   6,C   8)      0.0155         0.026355   
    142. D(H  29,C  14,C  13,O   5)   -134.2201         0.012395   
    143. D(H  28,C  14,C  13,N   6)    -73.7613         0.012395   
    144. D(H  28,C  14,C  13,O   5)    105.2133         0.012395   
    145. D(H  27,C  14,C  13,N   6)    166.4164         0.012395   
    146. D(H  27,C  14,C  13,O   5)    -14.6089         0.012395   
    -----------------------------------------------------------------

Number of atoms                         .... 30
Number of degrees of freedom            .... 146


         *************************************************************
         *                GEOMETRY OPTIMIZATION CYCLE   1            *
         *************************************************************
---------------------------------
CARTESIAN COORDINATES (ANGSTROEM)
---------------------------------
  O      1.553600   -1.154900    0.282700
  O     -0.938700    2.105200    0.313400
  O      1.824800    2.435200   -0.435000
  O     -0.249700   -2.628100    0.294400
  O      4.267200   -1.053200   -0.117600
  O     -3.313600    0.496800    1.136500
  N     -1.999100   -0.493900   -0.509200
  C     -0.144300    1.083700   -0.293000
  C     -0.709300   -0.280500    0.114100
  C      1.306900    1.249900    0.163300
  C      2.143900    0.034700   -0.244300
  C      0.256900   -1.411800   -0.253800
  C      3.569200    0.108100    0.294000
  C     -3.190700   -0.084000    0.061300
  C     -4.377100   -0.407200   -0.807000
  H     -0.218400    1.230500   -1.377600
  H     -0.870300   -0.289700    1.201000
  H      1.328800    1.387600    1.252000
  H      2.198000   -0.054300   -1.337800
  H      0.326400   -1.536100   -1.342100
  H      3.584100    0.138000    1.388600
  H      4.106100    0.979300   -0.090400
  H     -2.016200   -0.906700   -1.437700
  H     -0.884400    1.997700    1.278300
  H      2.670200    2.641200   -0.002400
  H      0.114200   -3.354500   -0.239800
  H      3.784800   -1.824100    0.227200
  H     -5.298000   -0.292900   -0.228600
  H     -4.400100    0.275900   -1.660400
  H     -4.316800   -1.438400   -1.166700

----------------------------
CARTESIAN COORDINATES (A.U.)
----------------------------
  NO LB      ZA    FRAG     MASS         X           Y           Z
   0 O     8.0000    0    15.999    2.935879   -2.182445    0.534226
   1 O     8.0000    0    15.999   -1.773886    3.978251    0.592240
   2 O     8.0000    0    15.999    3.448372    4.601861   -0.822031
   3 O     8.0000    0    15.999   -0.471865   -4.966389    0.556335
   4 O     8.0000    0    15.999    8.063839   -1.990260   -0.222232
   5 O     8.0000    0    15.999   -6.261797    0.938816    2.147674
   6 N     7.0000    0    14.007   -3.777752   -0.933336   -0.962249
   7 C     6.0000    0    12.011   -0.272687    2.047896   -0.553690
   8 C     6.0000    0    12.011   -1.340383   -0.530068    0.215618
   9 C     6.0000    0    12.011    2.469683    2.361969    0.308592
  10 C     6.0000    0    12.011    4.051384    0.065573   -0.461660
  11 C     6.0000    0    12.011    0.485471   -2.667915   -0.479612
  12 C     6.0000    0    12.011    6.744811    0.204279    0.555579
  13 C     6.0000    0    12.011   -6.029549   -0.158737    0.115840
  14 C     6.0000    0    12.011   -8.271520   -0.769496   -1.525009
  15 H     1.0000    0     1.008   -0.412716    2.325308   -2.603287
  16 H     1.0000    0     1.008   -1.644629   -0.547454    2.269561
  17 H     1.0000    0     1.008    2.511068    2.622184    2.365937
  18 H     1.0000    0     1.008    4.153618   -0.102612   -2.528076
  19 H     1.0000    0     1.008    0.616807   -2.902808   -2.536201
  20 H     1.0000    0     1.008    6.772967    0.260782    2.624074
  21 H     1.0000    0     1.008    7.759404    1.850609   -0.170831
  22 H     1.0000    0     1.008   -3.810066   -1.713415   -2.716859
  23 H     1.0000    0     1.008   -1.671274    3.775106    2.415637
  24 H     1.0000    0     1.008    5.045947    4.991145   -0.004535
  25 H     1.0000    0     1.008    0.215807   -6.339086   -0.453156
  26 H     1.0000    0     1.008    7.152235   -3.447049    0.429346
  27 H     1.0000    0     1.008  -10.011769   -0.553501   -0.431991
  28 H     1.0000    0     1.008   -8.314984    0.521375   -3.137701
  29 H     1.0000    0     1.008   -8.157570   -2.718182   -2.204743

--------------------------------
INTERNAL COORDINATES (ANGSTROEM)
--------------------------------
 O      0   0   0     0.000000000000     0.00000000     0.00000000
 O      1   0   0     4.103748748401     0.00000000     0.00000000
 O      2   1   0     2.882001875433    60.44034292     0.00000000
 O      1   2   3     2.328593141792    91.84736422   196.81387556
 O      1   2   3     2.744851169007   124.89434694     7.17720891
 O      2   1   3     2.984056665012    93.28017109   178.89777775
 N      6   2   1     2.327600745403    65.47635457   316.84887990
 C      2   1   3     1.429074725128    24.68391537    71.85624274
 C      7   6   2     1.448318504335    97.81286912    47.14528735
 C      3   2   1     1.425173459618    56.44756458   348.17847775
 C      1   2   3     1.428751640419    65.93539925   353.07942084
 C      1   2   3     1.426625651669    66.03716675   221.62681613
 C      5   1   2     1.416063646168    60.04577492    20.09370926
 C      6   2   1     1.228205231222    86.20285914   296.16063769
 C     14   6   2     1.505306643179   121.84569509   223.10734060
 H      8   2   1     1.096995082031   106.63852229   180.58896879
 H      9   7   6     1.098798093373   107.09642494    30.18633241
 H     10   3   2     1.097592178361   107.74709994   274.01738362
 H     11   1   2     1.098448933724   108.66769935   254.42656390
 H     12   1   2     1.097578074672   109.61646279   108.43446256
 H     13   5   1     1.095109665741   107.83122391    91.49987075
 H     13   5   1     1.093167146414   108.01528706   208.97984180
 H      7   6   2     1.016271863233   144.03322172   233.71019033
 H      2   1   3     0.972387139981    83.43582649   251.57034196
 H      3   2   1     0.971740664992   137.97751886   269.02936955
 H      4   1   2     0.972342434536   100.37251973   146.42043984
 H      5   1   2     0.972565478515    55.14986263   165.85694924
 H     15  14   6     1.093465984839   109.64565663   345.39109040
 H     15  14   6     1.093364609817   109.43061533   105.21334793
 H     15  14   6     1.093797796670   110.40546424   225.77990141

---------------------------
INTERNAL COORDINATES (A.U.)
---------------------------
 O      0   0   0     0.000000000000     0.00000000     0.00000000
 O      1   0   0     7.754961256899     0.00000000     0.00000000
 O      2   1   0     5.446194262016    60.44034292     0.00000000
 O      1   2   3     4.400403315314    91.84736422   196.81387556
 O      1   2   3     5.187016987797   124.89434694     7.17720891
 O      2   1   3     5.639049864974    93.28017109   178.89777775
 N      6   2   1     4.398527957922    65.47635457   316.84887990
 C      2   1   3     2.700559855401    24.68391537    71.85624274
 C      7   6   2     2.736925327884    97.81286912    47.14528735
 C      3   2   1     2.693187532011    56.44756458   348.17847775
 C      1   2   3     2.699949313783    65.93539925   353.07942084
 C      1   2   3     2.695931777281    66.03716675   221.62681613
 C      5   1   2     2.675972479460    60.04577492    20.09370926
 C      6   2   1     2.320971523258    86.20285914   296.16063769
 C     14   6   2     2.844617303181   121.84569509   223.10734060
 H      8   2   1     2.073020275297   106.63852229   180.58896879
 H      9   7   6     2.076427472950   107.09642494    30.18633241
 H     10   3   2     2.074148623837   107.74709994   274.01738362
 H     11   1   2     2.075767656837   108.66769935   254.42656390
 H     12   1   2     2.074121971726   109.61646279   108.43446256
 H     13   5   1     2.069457354861   107.83122391    91.49987075
 H     13   5   1     2.065786525324   108.01528706   208.97984180
 H      7   6   2     1.920475499121   144.03322172   233.71019033
 H      2   1   3     1.837545390711    83.43582649   251.57034196
 H      3   2   1     1.836323730030   137.97751886   269.02936955
 H      4   1   2     1.837460909664   100.37251973   146.42043984
 H      5   1   2     1.837882401700    55.14986263   165.85694924
 H     15  14   6     2.066351248104   109.64565663   345.39109040
 H     15  14   6     2.066159677076   109.43061533   105.21334793
 H     15  14   6     2.066978281593   110.40546424   225.77990141

---------------------
BASIS SET INFORMATION
---------------------
There are 4 groups of distinct atoms

 Group   1 Type O   : 10s4p1d contracted to 3s2p1d pattern {631/31/1}
 Group   2 Type N   : 10s4p1d contracted to 3s2p1d pattern {631/31/1}
 Group   3 Type C   : 10s4p1d contracted to 3s2p1d pattern {631/31/1}
 Group   4 Type H   : 4s1p contracted to 2s1p pattern {31/1}

Atom   0O    basis set group =>   1
Atom   1O    basis set group =>   1
Atom   2O    basis set group =>   1
Atom   3O    basis set group =>   1
Atom   4O    basis set group =>   1
Atom   5O    basis set group =>   1
Atom   6N    basis set group =>   2
Atom   7C    basis set group =>   3
Atom   8C    basis set group =>   3
Atom   9C    basis set group =>   3
Atom  10C    basis set group =>   3
Atom  11C    basis set group =>   3
Atom  12C    basis set group =>   3
Atom  13C    basis set group =>   3
Atom  14C    basis set group =>   3
Atom  15H    basis set group =>   4
Atom  16H    basis set group =>   4
Atom  17H    basis set group =>   4
Atom  18H    basis set group =>   4
Atom  19H    basis set group =>   4
Atom  20H    basis set group =>   4
Atom  21H    basis set group =>   4
Atom  22H    basis set group =>   4
Atom  23H    basis set group =>   4
Atom  24H    basis set group =>   4
Atom  25H    basis set group =>   4
Atom  26H    basis set group =>   4
Atom  27H    basis set group =>   4
Atom  28H    basis set group =>   4
Atom  29H    basis set group =>   4
---------------------------------
AUXILIARY/J BASIS SET INFORMATION
---------------------------------
There are 4 groups of distinct atoms

 Group   1 Type O   : 12s5p4d2f1g contracted to 6s4p3d1f1g pattern {711111/2111/211/2/1}
 Group   2 Type N   : 12s5p4d2f1g contracted to 6s4p3d1f1g pattern {711111/2111/211/2/1}
 Group   3 Type C   : 12s5p4d2f1g contracted to 6s4p3d1f1g pattern {711111/2111/211/2/1}
 Group   4 Type H   : 5s2p1d contracted to 3s1p1d pattern {311/2/1}

Atom   0O    basis set group =>   1
Atom   1O    basis set group =>   1
Atom   2O    basis set group =>   1
Atom   3O    basis set group =>   1
Atom   4O    basis set group =>   1
Atom   5O    basis set group =>   1
Atom   6N    basis set group =>   2
Atom   7C    basis set group =>   3
Atom   8C    basis set group =>   3
Atom   9C    basis set group =>   3
Atom  10C    basis set group =>   3
Atom  11C    basis set group =>   3
Atom  12C    basis set group =>   3
Atom  13C    basis set group =>   3
Atom  14C    basis set group =>   3
Atom  15H    basis set group =>   4
Atom  16H    basis set group =>   4
Atom  17H    basis set group =>   4
Atom  18H    basis set group =>   4
Atom  19H    basis set group =>   4
Atom  20H    basis set group =>   4
Atom  21H    basis set group =>   4
Atom  22H    basis set group =>   4
Atom  23H    basis set group =>   4
Atom  24H    basis set group =>   4
Atom  25H    basis set group =>   4
Atom  26H    basis set group =>   4
Atom  27H    basis set group =>   4
Atom  28H    basis set group =>   4
Atom  29H    basis set group =>   4


           ************************************************************
           *        Program running with 2 parallel MPI-processes     *
           *              working on a common directory               *
           ************************************************************
------------------------------------------------------------------------------
                             ORCA STARTUP CALCULATIONS
                           -- RI-GTO INTEGRALS CHOSEN --
------------------------------------------------------------------------------
------------------------------------------------------------------------------
                   ___                                                        
                  /   \      - P O W E R E D   B Y -                         
                 /     \                                                     
                 |  |  |   _    _      __       _____    __    __             
                 |  |  |  | |  | |    /  \     |  _  \  |  |  /  |          
                  \  \/   | |  | |   /    \    | | | |  |  | /  /          
                 / \  \   | |__| |  /  /\  \   | |_| |  |  |/  /          
                |  |  |   |  __  | /  /__\  \  |    /   |      \           
                |  |  |   | |  | | |   __   |  |    \   |  |\   \          
                \     /   | |  | | |  |  |  |  | |\  \  |  | \   \       
                 \___/    |_|  |_| |__|  |__|  |_| \__\ |__|  \__/        
                                                                              
                      - O R C A' S   B I G   F R I E N D -                    
                                      &                                       
                       - I N T E G R A L  F E E D E R -                       
                                                                              
 v1 FN, 2020, v2 2021, v3 2022-2024                                           
------------------------------------------------------------------------------


----------------------
SHARK INTEGRAL PACKAGE
----------------------

Number of atoms                             ...     30
Number of basis functions                   ...    285
Number of shells                            ...    135
Maximum angular momentum                    ...      2
Integral batch strategy                     ... SHARK/LIBINT Hybrid
RI-J (if used) integral strategy            ... SPLIT-RIJ (Revised 2003 algorithm where possible)
Printlevel                                  ...      1
Contraction scheme used                     ... SEGMENTED contraction
Prescreening option                         ... SCHWARTZ
   Thresh                                   ... 2.500e-11
   Tcut                                     ... 2.500e-12
   Tpresel                                  ... 2.500e-12 
Coulomb Range Separation                    ... NOT USED
Exchange Range Separation                   ... NOT USED
Multipole approximations                    ... NOT USED
Finite Nucleus Model                        ... NOT USED
CABS basis                                  ... NOT available
Auxiliary Coulomb fitting basis             ... AVAILABLE
   # of basis functions in Aux-J            ...    900
   # of shells in Aux-J                     ...    300
   Maximum angular momentum in Aux-J        ...      4
Auxiliary J/K fitting basis                 ... NOT available
Auxiliary Correlation fitting basis         ... NOT available
Auxiliary 'external' fitting basis          ... NOT available

Checking pre-screening integrals            ... done (  0.0 sec) Dimension = 135
   => SHARK Basis and OBASIS are compatible. Storing Pre-screening
Shell pair information
Shell pair cut-off parameter TPreSel        ...   2.5e-12
Total number of shell pairs                 ...      9180
Shell pairs after pre-screening             ...      7240
Total number of primitive shell pairs       ...     45510
Primitive shell pairs kept                  ...     21943
          la=0 lb=0:   2262 shell pairs
          la=1 lb=0:   2662 shell pairs
          la=1 lb=1:    827 shell pairs
          la=2 lb=0:    870 shell pairs
          la=2 lb=1:    522 shell pairs
          la=2 lb=2:     97 shell pairs

Checking whether 4 symmetric matrices of dimension 285 fit in memory
:Max Core in MB      =   3000.00
 MB in use           =     13.12
 MB left             =   2986.88
 MB needed           =      1.24
 Data fit in memory  = YES
Calculating RI/J V-Matrix + Cholesky decomp.... done (  0.1 sec)
Calculating Nuclear repulsion               ... done (  0.0 sec) ENN=   1132.621658709827 Eh

Diagonalization of the overlap matrix:
Smallest eigenvalue                        ... 1.839e-03
Time for diagonalization                   ...    0.010 sec
Threshold for overlap eigenvalues          ... 1.000e-07
Number of eigenvalues below threshold      ... 0
Time for construction of square roots      ...    0.004 sec
Total time needed                          ...    0.015 sec

-------------------
DFT GRID GENERATION
-------------------

General Integration Accuracy     IntAcc      ... 4.388
Radial Grid Type                 RadialGrid  ... OptM3 with GC (2021)
Angular Grid (max. ang.)         AngularGrid ... 4 (Lebedev-302)
Angular grid pruning method      GridPruning ... 4 (adaptive)
Weight generation scheme         WeightScheme... mBecke (2022)
Basis function cutoff            BFCut       ... 1.0000e-11
Integration weight cutoff        WCut        ... 1.0000e-14
Partially contracted basis set               ... off
Rotationally invariant grid construction     ... off
Angular grids for H and He will be reduced by one unit

Total number of grid points                  ...   137767
Total number of batches                      ...     2167
Average number of points per batch           ...       63
Average number of grid points per atom       ...     4592

--------------------
COSX GRID GENERATION
--------------------

GRIDX 1
-------
General Integration Accuracy     IntAcc      ... 3.816
Radial Grid Type                 RadialGrid  ... OptM3 with GC (2021)
Angular Grid (max. ang.)         AngularGrid ... 1 (Lebedev-50)
Angular grid pruning method      GridPruning ... 4 (adaptive)
Weight generation scheme         WeightScheme... mBecke (2022)
Basis function cutoff            BFCut       ... 1.0000e-11
Integration weight cutoff        WCut        ... 1.0000e-14
Partially contracted basis set               ... on
Rotationally invariant grid construction     ... off
Angular grids for H and He will be reduced by one unit

Total number of grid points                  ...    17525
Total number of batches                      ...      155
Average number of points per batch           ...      113
Average number of grid points per atom       ...      584
UseSFitting                                  ... on

GRIDX 2
-------
General Integration Accuracy     IntAcc      ... 4.020
Radial Grid Type                 RadialGrid  ... OptM3 with GC (2021)
Angular Grid (max. ang.)         AngularGrid ... 2 (Lebedev-110)
Angular grid pruning method      GridPruning ... 4 (adaptive)
Weight generation scheme         WeightScheme... mBecke (2022)
Basis function cutoff            BFCut       ... 1.0000e-11
Integration weight cutoff        WCut        ... 1.0000e-14
Partially contracted basis set               ... on
Rotationally invariant grid construction     ... off
Angular grids for H and He will be reduced by one unit

Total number of grid points                  ...    37692
Total number of batches                      ...      308
Average number of points per batch           ...      122
Average number of grid points per atom       ...     1256
UseSFitting                                  ... on

GRIDX 3
-------
General Integration Accuracy     IntAcc      ... 4.338
Radial Grid Type                 RadialGrid  ... OptM3 with GC (2021)
Angular Grid (max. ang.)         AngularGrid ... 3 (Lebedev-194)
Angular grid pruning method      GridPruning ... 4 (adaptive)
Weight generation scheme         WeightScheme... mBecke (2022)
Basis function cutoff            BFCut       ... 1.0000e-11
Integration weight cutoff        WCut        ... 1.0000e-14
Partially contracted basis set               ... on
Rotationally invariant grid construction     ... off
Angular grids for H and He will be reduced by one unit

Total number of grid points                  ...    82412
Total number of batches                      ...      660
Average number of points per batch           ...      124
Average number of grid points per atom       ...     2747
UseSFitting                                  ... on
Grids setup in   3.6 sec
Initializing property integral containers    ... done (  0.0 sec)

SHARK setup successfully completed in   3.9 seconds

Maximum memory used throughout the entire STARTUP-calculation: 47.9 MB


           ************************************************************
           *        Program running with 2 parallel MPI-processes     *
           *              working on a common directory               *
           ************************************************************
-------------------------------------------------------------------------------
                                 ORCA GUESS
                   Start orbitals & Density for SCF / CASSCF
-------------------------------------------------------------------------------

------------
SCF SETTINGS
------------
Hamiltonian:
 Density Functional     Method          .... DFT(GTOs)
 Exchange Functional    Exchange        .... B88
   X-Alpha parameter    XAlpha          ....  0.666667
   Becke's b parameter  XBeta           ....  0.004200
 Correlation Functional Correlation     .... LYP
 LDA part of GGA corr.  LDAOpt          .... VWN-5
 Gradients option       PostSCFGGA      .... off
 Hybrid DFT is turned on
   Fraction HF Exchange ScalHFX         ....  0.200000
   Scaling of DF-GGA-X  ScalDFX         ....  0.720000
   Scaling of DF-GGA-C  ScalDFC         ....  0.810000
   Scaling of DF-LDA-C  ScalLDAC        ....  1.000000
   Perturbative correction              ....  0.000000
   NL short-range parameter             ....  4.800000
 RI-approximation to the Coulomb term is turned on
   Number of AuxJ basis functions       .... 900
   RIJ-COSX (HFX calculated with COS-X)).... on


General Settings:
 Integral files         IntName         .... /kaggle/working/GlcNAc/GlcNAc_InterFrag
 Hartree-Fock type      HFTyp           .... RHF
 Total Charge           Charge          ....    0
 Multiplicity           Mult            ....    1
 Number of Electrons    NEL             ....  118
 Basis Dimension        Dim             ....  285
 Nuclear Repulsion      ENuc            ....   1132.6216587098 Eh

Convergence Acceleration:
 AO-DIIS                CNVDIIS         .... on
   Start iteration      DIISMaxIt       ....    12
   Startup error        DIISStart       ....  0.200000
   # of expansion vecs  DIISMaxEq       ....     5
   Bias factor          DIISBfac        ....   1.050
   Max. coefficient     DIISMaxC        ....  10.000
 MO-DIIS                CNVKDIIS        .... off
 Trust-Rad. Augm. Hess. CNVTRAH         .... auto
   Auto Start mean grad. ratio tolernc. ....  1.125000
   Auto Start start iteration           ....    50
   Auto Start num. interpolation iter.  ....    10
   Max. Number of Micro iterations      ....    24
   Max. Number of Macro iterations      .... Maxiter - #DIIS iter
   Number of Davidson start vectors     ....     2
   Converg. threshold    (grad. norm)   ....   1.000e-05
   Grad. Scal. Fac. for Micro threshold ....   0.100
   Minimum threshold for Micro iter.    ....   1.000e-02
   NR start threshold (gradient norm)   ....   1.000e-04
   Initial trust radius                 ....   0.400
   Minimum AH scaling param. (alpha)    ....   1.000
   Maximum AH scaling param. (alpha)    .... 1000.000
   Quad. conv. algorithm                .... NR
   White noise on init. David. guess    .... on
   Maximum white noise                  ....   0.010
   Pseudo random numbers                .... off
   Inactive MOs                         .... canonical
   Orbital update algorithm             .... Taylor
   Preconditioner                       .... Diag
   Full preconditioner red. dimension   ....   250
 SOSCF                 CNVSOSCF           .... on
   Start iteration     SOSCFMaxIt         ....   150
   Startup grad/error  SOSCFStart         ....  0.000330
   Hessian update      SOSCFHessUp        .... L-BFGS
   Autom. constraints  SOSCFAutoConstrain .... off
 Level Shifting         CNVShift        .... on
   Level shift para.    LevelShift      ....    0.2500
   Turn off err/grad.   ShiftErr        ....    0.0010
 Zerner damping         CNVZerner       .... off
 Static damping         CNVDamp         .... on
   Fraction old density DampFac         ....    0.7000
   Max. Damping (<1)    DampMax         ....    0.9800
   Min. Damping (>=0)   DampMin         ....    0.0000
   Turn off err/grad.   DampErr         ....    0.1000

SCF Procedure:
 Maximum # iterations   MaxIter         ....   400
 SCF integral mode      SCFMode         .... Direct
   Integral package                     .... SHARK and LIBINT hybrid scheme
 Reset frequency        DirectResetFreq ....    20
 Integral Threshold     Thresh          ....  2.500e-11 Eh
 Primitive CutOff       TCut            ....  2.500e-12 Eh

Convergence Tolerance:
 Convergence Check Mode ConvCheckMode   .... Total+1el-Energy
 Convergence forced     ConvForced      .... 0
 Energy Change          TolE            ....  1.000e-08 Eh
 1-El. energy change                    ....  1.000e-05 Eh
 Orbital Gradient       TolG            ....  1.000e-05
 Orbital Rotation angle TolX            ....  1.000e-05
 DIIS Error             TolErr          ....  5.000e-07

------------------------------
INITIAL GUESS: MODEL POTENTIAL
------------------------------
Loading Hartree-Fock densities                     ... done
Calculating cut-offs                               ... done
Initializing the effective Hamiltonian             ... done
Setting up the integral package (SHARK)            ... done
Starting the Coulomb interaction                   ... done (   0.5 sec)
Making the grid                                    ... done (   0.4 sec)
Mapping shells                                     ... done
Starting the XC term evaluation                    ... done (   0.3 sec)
  promolecular density results
     # of electrons  =    117.988099105
     EX              =   -101.409382999
     EC              =     -4.097991390
     EX+EC           =   -105.507374389
Transforming the Hamiltonian                       ... done (   0.0 sec)
Diagonalizing the Hamiltonian                      ... done (   0.0 sec)
Back transforming the eigenvectors                 ... done (   0.0 sec)
Now organizing SCF variables                       ... done
                      ------------------
                      INITIAL GUESS DONE (   1.2 sec)
                      ------------------
             **** ENERGY FILE WAS UPDATED (/kaggle/working/GlcNAc/GlcNAc_InterFrag.en.tmp) ****
Finished Guess after   1.5 sec
Maximum memory used throughout the entire GUESS-calculation: 18.8 MB


           ************************************************************
           *        Program running with 2 parallel MPI-processes     *
           *              working on a common directory               *
           ************************************************************

-------------------------------------------------------------------------------------------
                                      ORCA LEAN-SCF
                              memory conserving SCF solver
-------------------------------------------------------------------------------------------

--------------------
CPCM SOLVATION MODEL
--------------------
CPCM parameters:
  Epsilon                                         ...      78.3550
  Refrac                                          ...       1.3328
  Rsolv                                           ...       1.3000
  Surface type                                    ... GAUSSIAN VDW
  Discretization scheme                           ... Constant charge density
    Threshold for H atoms                         ...       5.0000 (charges/Ang^2)
    Threshold for non-H atoms                     ...       5.0000 (charges/Ang^2)
  Epsilon function type                           ...         CPCM
Solvent:                                          ... WATER
SMD-CDS solvent descriptors:
  Soln                                            ...       1.3328
  Soln25                                          ...       1.3323
  Sola                                            ...       0.0000
  Solb                                            ...       0.0000
  Solg                                            ...       0.0000
  Solc                                            ...       0.0000
  Solh                                            ...       0.0000
Radii:
  Scheme                                          ... Element-dependent radii
  Radius for O  used is    2.8724 Bohr (=   1.5200 Ang.)
  Radius for N  used is    3.5716 Bohr (=   1.8900 Ang.)
  Radius for C  used is    3.4960 Bohr (=   1.8500 Ang.)
  Radius for H  used is    2.2677 Bohr (=   1.2000 Ang.)
Calculating surface                               ...        done! (  0.0s)
Cavity surface points                             ...         2059
Cavity Volume                                     ...    1344.6342
Cavity Surface-area                               ...     835.8482
Calculating surface distance matrix               ...        done! (  0.1s)
Performing Cholesky decomposition & store         ...        done! (  0.2s)
Overall time for CPCM initialization              ...                 0.3s

----------------------------------------D-I-I-S--------------------------------------------
Iteration    Energy (Eh)           Delta-E    RMSDP     MaxDP     DIISErr   Damp  Time(sec)
-------------------------------------------------------------------------------------------
               ***  Starting incremental Fock matrix formation  ***
    1    -819.1287733506953828     0.00e+00  3.59e-03  8.86e-02  2.69e-01  0.700  10.1
    2    -819.3380735515931974    -2.09e-01  2.27e-03  5.15e-02  1.13e-01  0.700   5.4
                               ***Turning on AO-DIIS***
    3    -819.4168424608919850    -7.88e-02  8.27e-04  1.62e-02  3.93e-02  0.700   5.2
    4    -819.4655545944035566    -4.87e-02  1.28e-03  2.28e-02  1.79e-02  0.000   5.0
    5    -819.5735102059682049    -1.08e-01  2.71e-04  5.45e-03  6.84e-03  0.000   5.1
    6    -819.5739553231155696    -4.45e-04  8.11e-05  1.63e-03  1.44e-03  0.000   4.6
    7    -819.5739790100583377    -2.37e-05  3.43e-05  6.32e-04  4.79e-04  0.000   4.2
               *** Restarting incremental Fock matrix formation ***
                             ****Resetting DIIS****
    8    -819.5739550295184017     2.40e-05  2.81e-05  9.66e-04  4.67e-04  0.000  10.1
    9    -819.5739537694410046     1.26e-06  1.60e-05  6.31e-04  8.98e-04  0.000   6.4
                              *** Initializing SOSCF ***
---------------------------------------S-O-S-C-F--------------------------------------
Iteration    Energy (Eh)           Delta-E    RMSDP     MaxDP     MaxGrad    Time(sec)
--------------------------------------------------------------------------------------
   10    -819.5739560828328649    -2.31e-06  2.66e-06  9.82e-05  1.02e-04     5.6
               *** Restarting incremental Fock matrix formation ***
   11    -819.5739560863487441    -3.52e-09  3.06e-06  1.24e-04  1.78e-05    10.1
   12    -819.5739560572812934     2.91e-08  1.90e-06  8.21e-05  2.97e-05     4.7
   13    -819.5739560994677504    -4.22e-08  4.95e-07  1.95e-05  2.70e-06     4.3
   14    -819.5739561068853618    -7.42e-09  3.06e-07  1.22e-05  4.27e-06     3.5
                 **** Energy Check signals convergence ****

               *****************************************************
               *                     SUCCESS                       *
               *           SCF CONVERGED AFTER  14 CYCLES          *
               *****************************************************

Recomputing exchange energy using gridx3       ... done (   15.490 sec)
Old exchange energy                            :    -20.607653160 Eh
New exchange energy                            :    -20.607661857 Eh
Exchange energy change after final integration :     -0.000008697 Eh
Total energy after final integration           :   -819.573964796 Eh

SMD CDS free energy correction energy :                 5.49087     Kcal/mol
Total Energy after SMD CDS correction =              -819.565214539 Eh
             **** ENERGY FILE WAS UPDATED (/kaggle/working/GlcNAc/GlcNAc_InterFrag.en.tmp) ****

----------------
TOTAL SCF ENERGY
----------------

Total Energy       :       -819.56521453899961 Eh          -22301.50327 eV

Components:
Nuclear Repulsion  :       1132.62165870982653 Eh           30820.20220 eV
Electronic Energy  :      -1952.12127822251819 Eh          -53119.92055 eV
One Electron Energy:      -3372.59128447451121 Eh          -91772.87449 eV
Two Electron Energy:       1420.47000625199303 Eh           38652.95395 eV
CPCM Dielectric    :         -0.07433658631235 Eh              -2.02280 eV
SMD CDS (Gcds)     :          0.00875025691595 Eh               0.23811 eV

Virial components:
Potential Energy   :      -1634.16533137184570 Eh          -44467.89937 eV
Kinetic Energy     :        814.60011683284608 Eh           22166.39610 eV
Virial Ratio       :          2.00609513502829

DFT components:
N(Alpha)           :       58.999917424198 electrons
N(Beta)            :       58.999917424198 electrons
N(Total)           :      117.999834848395 electrons
E(X)               :      -81.893422453940 Eh       
E(C)               :       -4.819528535673 Eh       
E(XC)              :      -86.712950989613 Eh       

CPCM Solvation Model Properties:
Surface-charge          :         -0.04240643409970
Corrected charge        :          0.00000000000000
Outlying charge corr.   :          0.00011599368630 Eh               0.00316 eV
Free-energy (cav+disp)  :          0.00875025691595 Eh               0.23811 eV

---------------
SCF CONVERGENCE
---------------

  Last Energy change         ...    7.4176e-09  Tolerance :   1.0000e-08
  Last MAX-Density change    ...    1.2152e-05  Tolerance :   1.0000e-07
  Last RMS-Density change    ...    3.0608e-07  Tolerance :   5.0000e-09
  Last DIIS Error            ...    1.0158e-04  Tolerance :   5.0000e-07
  Last Orbital Gradient      ...    4.2715e-06  Tolerance :   1.0000e-05
  Last Orbital Rotation      ...    5.7216e-06  Tolerance :   1.0000e-05


----------------
ORBITAL ENERGIES
----------------

  NO   OCC          E(Eh)            E(eV) 
   0   2.0000     -19.156003      -521.2613 
   1   2.0000     -19.152632      -521.1696 
   2   2.0000     -19.141574      -520.8687 
   3   2.0000     -19.137366      -520.7542 
   4   2.0000     -19.134175      -520.6674 
   5   2.0000     -19.115435      -520.1574 
   6   2.0000     -14.348019      -390.4294 
   7   2.0000     -10.285435      -279.8809 
   8   2.0000     -10.284316      -279.8505 
   9   2.0000     -10.228418      -278.3294 
  10   2.0000     -10.226113      -278.2667 
  11   2.0000     -10.224765      -278.2300 
  12   2.0000     -10.219046      -278.0744 
  13   2.0000     -10.216557      -278.0066 
  14   2.0000     -10.168565      -276.7007 
  15   2.0000      -1.066463       -29.0199 
  16   2.0000      -1.033310       -28.1178 
  17   2.0000      -1.025911       -27.9165 
  18   2.0000      -1.016478       -27.6598 
  19   2.0000      -1.006119       -27.3779 
  20   2.0000      -0.999029       -27.1850 
  21   2.0000      -0.917067       -24.9547 
  22   2.0000      -0.778460       -21.1830 
  23   2.0000      -0.764912       -20.8143 
  24   2.0000      -0.721636       -19.6367 
  25   2.0000      -0.681941       -18.5566 
  26   2.0000      -0.632295       -17.2056 
  27   2.0000      -0.618383       -16.8271 
  28   2.0000      -0.590559       -16.0699 
  29   2.0000      -0.570797       -15.5322 
  30   2.0000      -0.535254       -14.5650 
  31   2.0000      -0.524330       -14.2677 
  32   2.0000      -0.508695       -13.8423 
  33   2.0000      -0.503640       -13.7048 
  34   2.0000      -0.483509       -13.1570 
  35   2.0000      -0.471754       -12.8371 
  36   2.0000      -0.466116       -12.6837 
  37   2.0000      -0.460228       -12.5234 
  38   2.0000      -0.442941       -12.0530 
  39   2.0000      -0.426673       -11.6104 
  40   2.0000      -0.419368       -11.4116 
  41   2.0000      -0.416399       -11.3308 
  42   2.0000      -0.404424       -11.0049 
  43   2.0000      -0.402795       -10.9606 
  44   2.0000      -0.386131       -10.5072 
  45   2.0000      -0.376632       -10.2487 
  46   2.0000      -0.368161       -10.0182 
  47   2.0000      -0.352943        -9.6041 
  48   2.0000      -0.346944        -9.4408 
  49   2.0000      -0.342093        -9.3088 
  50   2.0000      -0.335810        -9.1379 
  51   2.0000      -0.319655        -8.6982 
  52   2.0000      -0.299616        -8.1530 
  53   2.0000      -0.288817        -7.8591 
  54   2.0000      -0.282929        -7.6989 
  55   2.0000      -0.268136        -7.2964 
  56   2.0000      -0.257747        -7.0137 
  57   2.0000      -0.252566        -6.8727 
  58   2.0000      -0.240368        -6.5407 
  59   0.0000       0.027792         0.7563 
  60   0.0000       0.073529         2.0008 
  61   0.0000       0.091946         2.5020 
  62   0.0000       0.100217         2.7271 
  63   0.0000       0.103337         2.8119 
  64   0.0000       0.112264         3.0549 
  65   0.0000       0.121225         3.2987 
  66   0.0000       0.130690         3.5562 
  67   0.0000       0.145297         3.9537 
  68   0.0000       0.157240         4.2787 
  69   0.0000       0.161522         4.3952 
  70   0.0000       0.165259         4.4969 
  71   0.0000       0.170341         4.6352 
  72   0.0000       0.177416         4.8277 
  73   0.0000       0.191025         5.1981 
  74   0.0000       0.200079         5.4444 
  75   0.0000       0.206550         5.6205 
  76   0.0000       0.210247         5.7211 
  77   0.0000       0.227717         6.1965 
  78   0.0000       0.242932         6.6105 
  79   0.0000       0.245088         6.6692 
  80   0.0000       0.251204         6.8356 
  81   0.0000       0.256043         6.9673 
  82   0.0000       0.266901         7.2627 
  83   0.0000       0.277788         7.5590 
  84   0.0000       0.293138         7.9767 
  85   0.0000       0.312386         8.5005 
  86   0.0000       0.323161         8.7937 
  87   0.0000       0.331071         9.0089 
  88   0.0000       0.354850         9.6560 
  89   0.0000       0.388099        10.5607 
  90   0.0000       0.513775        13.9805 
  91   0.0000       0.531961        14.4754 
  92   0.0000       0.542670        14.7668 
  93   0.0000       0.551685        15.0121 
  94   0.0000       0.560092        15.2409 
  95   0.0000       0.564617        15.3640 
  96   0.0000       0.585700        15.9377 
  97   0.0000       0.591220        16.0879 
  98   0.0000       0.602980        16.4079 
  99   0.0000       0.603407        16.4195 
 100   0.0000       0.611544        16.6410 
 101   0.0000       0.621582        16.9141 
 102   0.0000       0.639186        17.3931 
 103   0.0000       0.647328        17.6147 
 104   0.0000       0.663672        18.0594 
 105   0.0000       0.670548        18.2465 
 106   0.0000       0.681810        18.5530 
 107   0.0000       0.703117        19.1328 
 108   0.0000       0.708715        19.2851 
 109   0.0000       0.734591        19.9892 
 110   0.0000       0.753623        20.5071 
 111   0.0000       0.771854        21.0032 
 112   0.0000       0.772666        21.0253 
 113   0.0000       0.775632        21.1060 
 114   0.0000       0.784926        21.3589 
 115   0.0000       0.802627        21.8406 
 116   0.0000       0.804456        21.8904 
 117   0.0000       0.825073        22.4514 
 118   0.0000       0.829575        22.5739 
 119   0.0000       0.839624        22.8473 
 120   0.0000       0.848055        23.0767 
 121   0.0000       0.856901        23.3175 
 122   0.0000       0.866938        23.5906 
 123   0.0000       0.872479        23.7414 
 124   0.0000       0.881472        23.9861 
 125   0.0000       0.890669        24.2363 
 126   0.0000       0.893269        24.3071 
 127   0.0000       0.910563        24.7777 
 128   0.0000       0.921133        25.0653 
 129   0.0000       0.922968        25.1152 
 130   0.0000       0.930938        25.3321 
 131   0.0000       0.950138        25.8546 
 132   0.0000       0.960651        26.1406 
 133   0.0000       0.975879        26.5550 
 134   0.0000       0.986636        26.8477 
 135   0.0000       1.002090        27.2683 
 136   0.0000       1.017734        27.6940 
 137   0.0000       1.033825        28.1318 
 138   0.0000       1.037987        28.2451 
 139   0.0000       1.052123        28.6297 
 140   0.0000       1.082409        29.4539 
 141   0.0000       1.095343        29.8058 
 142   0.0000       1.101343        29.9691 
 143   0.0000       1.130136        30.7526 
 144   0.0000       1.136388        30.9227 
 145   0.0000       1.180166        32.1139 
 146   0.0000       1.205113        32.7928 
 147   0.0000       1.213196        33.0128 
 148   0.0000       1.224338        33.3159 
 149   0.0000       1.249618        34.0038 
 150   0.0000       1.273023        34.6407 
 151   0.0000       1.287272        35.0284 
 152   0.0000       1.298553        35.3354 
 153   0.0000       1.314276        35.7633 
 154   0.0000       1.339370        36.4461 
 155   0.0000       1.378482        37.5104 
 156   0.0000       1.382794        37.6277 
 157   0.0000       1.391934        37.8765 
 158   0.0000       1.402404        38.1614 
 159   0.0000       1.426223        38.8095 
 160   0.0000       1.461388        39.7664 
 161   0.0000       1.483373        40.3646 
 162   0.0000       1.494331        40.6628 
 163   0.0000       1.528263        41.5862 
 164   0.0000       1.541796        41.9544 
 165   0.0000       1.557257        42.3751 
 166   0.0000       1.564936        42.5841 
 167   0.0000       1.596728        43.4492 
 168   0.0000       1.604369        43.6571 
 169   0.0000       1.615314        43.9549 
 170   0.0000       1.628092        44.3026 
 171   0.0000       1.639575        44.6151 
 172   0.0000       1.664757        45.3003 
 173   0.0000       1.690077        45.9893 
 174   0.0000       1.703092        46.3435 
 175   0.0000       1.732437        47.1420 
 176   0.0000       1.752632        47.6916 
 177   0.0000       1.759425        47.8764 
 178   0.0000       1.770269        48.1715 
 179   0.0000       1.790393        48.7191 
 180   0.0000       1.812253        49.3139 
 181   0.0000       1.815465        49.4013 
 182   0.0000       1.818941        49.4959 
 183   0.0000       1.834551        49.9207 
 184   0.0000       1.850475        50.3540 
 185   0.0000       1.866308        50.7848 
 186   0.0000       1.878296        51.1110 
 187   0.0000       1.901488        51.7421 
 188   0.0000       1.907916        51.9170 
 189   0.0000       1.910303        51.9820 
 190   0.0000       1.933290        52.6075 
 191   0.0000       1.942734        52.8645 
 192   0.0000       1.966393        53.5083 
 193   0.0000       1.967578        53.5405 
 194   0.0000       1.981548        53.9207 
 195   0.0000       1.996157        54.3182 
 196   0.0000       2.006071        54.5880 
 197   0.0000       2.015284        54.8387 
 198   0.0000       2.027897        55.1819 
 199   0.0000       2.039509        55.4979 
 200   0.0000       2.048076        55.7310 
 201   0.0000       2.049557        55.7713 
 202   0.0000       2.061888        56.1068 
 203   0.0000       2.072659        56.3999 
 204   0.0000       2.075861        56.4870 
 205   0.0000       2.106804        57.3291 
 206   0.0000       2.115033        57.5530 
 207   0.0000       2.131155        57.9917 
 208   0.0000       2.133837        58.0647 
 209   0.0000       2.160370        58.7867 
 210   0.0000       2.192329        59.6563 
 211   0.0000       2.216649        60.3181 
 212   0.0000       2.219176        60.3869 
 213   0.0000       2.237249        60.8786 
 214   0.0000       2.255222        61.3677 
 215   0.0000       2.272913        61.8491 
 216   0.0000       2.314825        62.9896 
 217   0.0000       2.327305        63.3292 
 218   0.0000       2.339276        63.6549 
 219   0.0000       2.347469        63.8779 
 220   0.0000       2.359559        64.2069 
 221   0.0000       2.379451        64.7481 
 222   0.0000       2.396558        65.2137 
 223   0.0000       2.414456        65.7007 
 224   0.0000       2.436716        66.3064 
 225   0.0000       2.446452        66.5714 
 226   0.0000       2.464421        67.0603 
 227   0.0000       2.477827        67.4251 
 228   0.0000       2.487316        67.6833 
 229   0.0000       2.489338        67.7383 
 230   0.0000       2.499697        68.0202 
 231   0.0000       2.528051        68.7918 
 232   0.0000       2.581999        70.2598 
 233   0.0000       2.603868        70.8548 
 234   0.0000       2.613755        71.1239 
 235   0.0000       2.619941        71.2922 
 236   0.0000       2.629532        71.5532 
 237   0.0000       2.644032        71.9478 
 238   0.0000       2.658087        72.3302 
 239   0.0000       2.673651        72.7537 
 240   0.0000       2.681135        72.9574 
 241   0.0000       2.703722        73.5720 
 242   0.0000       2.709959        73.7417 
 243   0.0000       2.725215        74.1569 
 244   0.0000       2.729834        74.2826 
 245   0.0000       2.752439        74.8977 
 246   0.0000       2.761166        75.1351 
 247   0.0000       2.772983        75.4567 
 248   0.0000       2.779571        75.6360 
 249   0.0000       2.800013        76.1922 
 250   0.0000       2.820962        76.7623 
 251   0.0000       2.827942        76.9522 
 252   0.0000       2.847936        77.4963 
 253   0.0000       2.861990        77.8787 
 254   0.0000       2.884864        78.5011 
 255   0.0000       2.888494        78.5999 
 256   0.0000       2.896979        78.8308 
 257   0.0000       2.910533        79.1996 
 258   0.0000       2.936552        79.9076 
 259   0.0000       2.956361        80.4467 
 260   0.0000       2.973428        80.9111 
 261   0.0000       2.983807        81.1935 
 262   0.0000       3.010402        81.9172 
 263   0.0000       3.029254        82.4302 
 264   0.0000       3.036860        82.6372 
 265   0.0000       3.043641        82.8217 
 266   0.0000       3.080348        83.8205 
 267   0.0000       3.093352        84.1744 
 268   0.0000       3.156796        85.9008 
 269   0.0000       3.184589        86.6571 
 270   0.0000       3.222224        87.6812 
 271   0.0000       3.274048        89.0914 
 272   0.0000       3.292043        89.5810 
 273   0.0000       3.323626        90.4404 
 274   0.0000       3.367504        91.6344 
 275   0.0000       3.429648        93.3255 
 276   0.0000       3.451801        93.9283 
 277   0.0000       3.453716        93.9804 
 278   0.0000       3.488658        94.9312 
 279   0.0000       3.500288        95.2477 
 280   0.0000       3.511746        95.5595 
 281   0.0000       3.515642        95.6655 
 282   0.0000       3.548781        96.5672 
 283   0.0000       3.571907        97.1965 
 284   0.0000       3.574794        97.2751 

                    ********************************
                    * MULLIKEN POPULATION ANALYSIS *
                    ********************************

-----------------------
MULLIKEN ATOMIC CHARGES
-----------------------
   0 O :   -0.549091
   1 O :   -0.609313
   2 O :   -0.612357
   3 O :   -0.595752
   4 O :   -0.613792
   5 O :   -0.565522
   6 N :   -0.500727
   7 C :    0.168658
   8 C :    0.026396
   9 C :    0.160539
  10 C :    0.134434
  11 C :    0.392073
  12 C :    0.042480
  13 C :    0.516975
  14 C :   -0.401619
  15 H :    0.127687
  16 H :    0.136103
  17 H :    0.111714
  18 H :    0.111094
  19 H :    0.120214
  20 H :    0.109737
  21 H :    0.130639
  22 H :    0.311035
  23 H :    0.345573
  24 H :    0.357661
  25 H :    0.362436
  26 H :    0.345261
  27 H :    0.133706
  28 H :    0.157998
  29 H :    0.145760
Sum of atomic charges:   -0.0000000

--------------------------------
MULLIKEN REDUCED ORBITAL CHARGES
--------------------------------
  0 O s       :     3.879572  s :     3.879572
      pz      :     1.729192  p :     4.642702
      px      :     1.394645
      py      :     1.518865
      dz2     :     0.003809  d :     0.026818
      dxz     :     0.005776
      dyz     :     0.005136
      dx2y2   :     0.007789
      dxy     :     0.004308

  1 O s       :     3.836653  s :     3.836653
      pz      :     1.328614  p :     4.751272
      px      :     1.761506
      py      :     1.661152
      dz2     :     0.007604  d :     0.021388
      dxz     :     0.001849
      dyz     :     0.002939
      dx2y2   :     0.003656
      dxy     :     0.005340

  2 O s       :     3.845583  s :     3.845583
      pz      :     1.736360  p :     4.745259
      px      :     1.471342
      py      :     1.537556
      dz2     :     0.002628  d :     0.021516
      dxz     :     0.005075
      dyz     :     0.005183
      dx2y2   :     0.006235
      dxy     :     0.002395

  3 O s       :     3.849492  s :     3.849492
      pz      :     1.705208  p :     4.725225
      px      :     1.774309
      py      :     1.245708
      dz2     :     0.002649  d :     0.021035
      dxz     :     0.003821
      dyz     :     0.007084
      dx2y2   :     0.002327
      dxy     :     0.005155

  4 O s       :     3.831750  s :     3.831750
      pz      :     1.821105  p :     4.760731
      px      :     1.702818
      py      :     1.236809
      dz2     :     0.002654  d :     0.021311
      dxz     :     0.003625
      dyz     :     0.004476
      dx2y2   :     0.002510
      dxy     :     0.008045

  5 O s       :     3.843266  s :     3.843266
      pz      :     1.413339  p :     4.697539
      px      :     1.813583
      py      :     1.470617
      dz2     :     0.008694  d :     0.024717
      dxz     :     0.004854
      dyz     :     0.007429
      dx2y2   :     0.002158
      dxy     :     0.001583

  6 N s       :     3.544287  s :     3.544287
      pz      :     1.260337  p :     3.927986
      px      :     1.081043
      py      :     1.586606
      dz2     :     0.007189  d :     0.028454
      dxz     :     0.006648
      dyz     :     0.002769
      dx2y2   :     0.006016
      dxy     :     0.005832

  7 C s       :     3.159928  s :     3.159928
      pz      :     0.986306  p :     2.605524
      px      :     0.834205
      py      :     0.785013
      dz2     :     0.015771  d :     0.065890
      dxz     :     0.008054
      dyz     :     0.009548
      dx2y2   :     0.018271
      dxy     :     0.014247

  8 C s       :     3.176280  s :     3.176280
      pz      :     1.015597  p :     2.741703
      px      :     0.804111
      py      :     0.921995
      dz2     :     0.013107  d :     0.055620
      dxz     :     0.010054
      dyz     :     0.005182
[...]
13 C  dxz             2.1       0.2       2.7
13 C  dyz             0.2       0.0       0.1
13 C  dx2y2           0.7       0.0       0.4
13 C  dxy             0.0       0.0       0.2
14 C  pz              0.0       0.0       0.2
14 C  dz2             0.0       0.0       0.1
14 C  dxz             0.8       0.0       0.5
15 H  s               1.4       0.0       3.4
15 H  pz              5.9       0.1      12.6
15 H  py              0.2       0.0       0.0
16 H  s               3.6       0.1       0.1
16 H  pz             14.2       0.4       0.6
16 H  px              0.0       0.0       1.1
17 H  s               0.3       0.0       0.5
17 H  pz              1.2       0.2       2.1
18 H  s               0.0       0.3       0.0
18 H  pz              0.2       1.1       0.2
18 H  px              0.0       0.2       0.0
19 H  s               0.1       0.0       0.1
19 H  pz              0.4       0.0       0.3
19 H  px              0.1       0.0       0.0
19 H  py              0.1       0.0       0.0
20 H  s               0.1       1.8       0.0
20 H  pz              0.3       6.6       0.0
20 H  py              0.0       0.1       0.0
21 H  s               0.1       3.4       0.0
21 H  pz              0.0       1.5       0.0
21 H  px              0.1       3.0       0.0
21 H  py              0.2       8.8       0.1
22 H  s               4.9       0.3       3.6
22 H  pz             12.3       0.7       8.6
22 H  px              0.7       0.0       0.0
22 H  py              0.7       0.0       0.5
23 H  s               0.1       0.0       5.0
23 H  pz              0.1       0.0       9.4
23 H  px              0.2       0.0       0.8
24 H  s               0.4       0.0       0.1
24 H  pz              0.2       0.0       0.0
24 H  px              0.5       0.0       0.1
24 H  py              0.2       0.0       0.1
25 H  s               0.9       0.0       0.0
25 H  pz              0.3       0.0       0.0
25 H  px              0.5       0.0       0.0
25 H  py              1.1       0.0       0.1
26 H  s               0.4       9.4       0.0
26 H  pz              0.0       1.1       0.0
26 H  px              0.2       4.9       0.0
26 H  py              0.5      14.3       0.1
27 H  py              0.1       0.0       0.0
29 H  s               0.0       0.0       0.2
29 H  pz              0.1       0.0       0.7
29 H  py              0.0       0.0       0.1


                      *****************************
                      * MAYER POPULATION ANALYSIS *
                      *****************************

  NA   - Mulliken gross atomic population
  ZA   - Total nuclear charge
  QA   - Mulliken gross atomic charge
  VA   - Mayer's total valence
  BVA  - Mayer's bonded valence
  FA   - Mayer's free valence

  ATOM       NA         ZA         QA         VA         BVA        FA
  0 O      8.5497     8.0000    -0.5497     1.8720     1.8720    -0.0000
  1 O      8.6041     8.0000    -0.6041     1.8621     1.8621     0.0000
  2 O      8.6070     8.0000    -0.6070     1.8420     1.8420    -0.0000
  3 O      8.5838     8.0000    -0.5838     1.8871     1.8871     0.0000
  4 O      8.6091     8.0000    -0.6091     1.8470     1.8470     0.0000
  5 O      8.5939     8.0000    -0.5939     1.9374     1.9374    -0.0000
  6 N      7.4801     7.0000    -0.4801     3.0865     3.0865     0.0000
  7 C      5.8254     6.0000     0.1746     3.7967     3.7967     0.0000
  8 C      5.9945     6.0000     0.0055     3.7909     3.7909     0.0000
  9 C      5.8385     6.0000     0.1615     3.7694     3.7694     0.0000
 10 C      5.8724     6.0000     0.1276     3.7773     3.7773     0.0000
 11 C      5.5972     6.0000     0.4028     3.8122     3.8122     0.0000
 12 C      5.9502     6.0000     0.0498     3.8134     3.8134    -0.0000
 13 C      5.4815     6.0000     0.5185     3.9873     3.9873     0.0000
 14 C      6.3988     6.0000    -0.3988     3.8454     3.8454     0.0000
 15 H      0.8793     1.0000     0.1207     0.9574     0.9574    -0.0000
 16 H      0.8627     1.0000     0.1373     0.9771     0.9771     0.0000
 17 H      0.8873     1.0000     0.1127     0.9540     0.9540     0.0000
 18 H      0.8900     1.0000     0.1100     0.9570     0.9570     0.0000
 19 H      0.8868     1.0000     0.1132     0.9468     0.9468     0.0000
 20 H      0.8943     1.0000     0.1057     0.9504     0.9504    -0.0000
 21 H      0.8753     1.0000     0.1247     0.9578     0.9578    -0.0000
 22 H      0.6883     1.0000     0.3117     0.8969     0.8969    -0.0000
 23 H      0.6554     1.0000     0.3446     0.8877     0.8877     0.0000
 24 H      0.6410     1.0000     0.3590     0.8692     0.8692     0.0000
 25 H      0.6390     1.0000     0.3610     0.8697     0.8697     0.0000
 26 H      0.6567     1.0000     0.3433     0.8901     0.8901    -0.0000
 27 H      0.8489     1.0000     0.1511     0.9524     0.9524    -0.0000
 28 H      0.8439     1.0000     0.1561     0.9493     0.9493    -0.0000
 29 H      0.8646     1.0000     0.1354     0.9525     0.9525     0.0000

  Mayer bond orders larger than 0.100000
B(  0-O , 10-C ) :   0.8624 B(  0-O , 11-C ) :   0.8902 B(  1-O ,  7-C ) :   0.9302 
B(  1-O , 23-H ) :   0.8522 B(  2-O ,  9-C ) :   0.9177 B(  2-O , 24-H ) :   0.8505 
B(  3-O , 11-C ) :   1.0009 B(  3-O , 25-H ) :   0.8490 B(  4-O , 12-C ) :   0.9412 
B(  4-O , 26-H ) :   0.8502 B(  5-O , 13-C ) :   1.7369 B(  6-N ,  8-C ) :   0.9130 
B(  6-N , 13-C ) :   1.2030 B(  6-N , 22-H ) :   0.8602 B(  7-C ,  8-C ) :   0.9560 
B(  7-C ,  9-C ) :   0.9615 B(  7-C , 15-H ) :   0.9284 B(  8-C , 11-C ) :   0.9386 
B(  8-C , 16-H ) :   0.9130 B(  9-C , 10-C ) :   0.9216 B(  9-C , 17-H ) :   0.9269 
B( 10-C , 12-C ) :   0.9849 B( 10-C , 18-H ) :   0.9207 B( 11-C , 19-H ) :   0.9242 
B( 12-C , 20-H ) :   0.9346 B( 12-C , 21-H ) :   0.9403 B( 13-C , 14-C ) :   0.9892 
B( 14-C , 27-H ) :   0.9462 B( 14-C , 28-H ) :   0.9439 B( 14-C , 29-H ) :   0.9478 


-------
TIMINGS
-------

Total SCF time: 0 days 0 hours 1 min 12 sec 

Total time                  ....      72.230 sec
Sum of individual times     ....      68.255 sec  ( 94.5%)

SCF preparation             ....       0.660 sec  (  0.9%)
Fock matrix formation       ....      66.809 sec  ( 92.5%)
  Startup                   ....       0.008 sec  (  0.0% of F)
  Split-RI-J                ....       4.761 sec  (  7.1% of F)
  Chain of spheres X        ....      54.159 sec  ( 81.1% of F)
  XC integration            ....       6.781 sec  ( 10.1% of F)
    XC Preparation          ....       0.000 sec  (  0.0% of XC)
    Basis function eval.    ....       2.532 sec  ( 37.3% of XC)
    Density eval.           ....       1.641 sec  ( 24.2% of XC)
    XC-Functional eval.     ....       0.337 sec  (  5.0% of XC)
    XC-Potential eval.      ....       1.834 sec  ( 27.1% of XC)
  CPCM terms                ....       4.930 sec  (  7.4% of F)
Diagonalization             ....       0.000 sec  (  0.0%)
Density matrix formation    ....       0.030 sec  (  0.0%)
Total Energy calculation    ....       0.018 sec  (  0.0%)
Population analysis         ....       0.432 sec  (  0.6%)
Orbital Transformation      ....       0.043 sec  (  0.1%)
Orbital Orthonormalization  ....       0.000 sec  (  0.0%)
DIIS solution               ....       0.199 sec  (  0.3%)
  MO trafo                  ....       0.024 sec  ( 12.0 % of DIIS)
  Orb grad                  ....       0.000 sec  (  0.0 % of DIIS)
  Energy W gradient         ....       0.000 sec  (  0.0 % of DIIS)
  DIIS error                ....       0.039 sec  ( 19.8 % of DIIS)
  DIIS work                 ....       0.108 sec  ( 54.2 % of DIIS)
  Form Q                    ....       0.000 sec  (  0.0 % of DIIS)
  Form QpQm                 ....       0.000 sec  (  0.0 % of DIIS)
  Exp/Cayley                ....       0.000 sec  (  0.0 % of DIIS)
  Orb update                ....       0.000 sec  (  0.0 % of DIIS)
  Wake-sleep                ....       0.006 sec  (  2.9 % of DIIS)
SOSCF solution              ....       0.064 sec  (  0.1%)
  MO trafo                  ....       0.033 sec  ( 51.9 % of SOSCF)
  Orb grad                  ....       0.001 sec  (  2.2 % of SOSCF)
  Rot update                ....       0.002 sec  (  3.6 % of SOSCF)
  Step                      ....       0.024 sec  ( 37.9 % of SOSCF)
Finished LeanSCF after  72.4 sec

Maximum memory used throughout the entire LEANSCF-calculation: 49.3 MB


-------------------------------------------------------------------------------
                          DFT DISPERSION CORRECTION                            
                                                                               
                              DFTD3 V3.1  Rev 1                                
                          USING Becke-Johnson damping                          
-------------------------------------------------------------------------------
The B3LYP functional is recognized
Active option DFTDOPT                   ...         4   

molecular C6(AA) [au] = 7139.289560 


            DFT-D V3
 parameters
 s6 scaling factor         :     1.0000 
 a1 scaling factor         :     0.3981 
 s8 scaling factor         :     1.9889 
 a2 scaling factor         :     4.4211 
 ad hoc parameters k1-k3   :    16.0000     1.3333    -4.0000 

 Edisp/kcal,au: -32.543448248737  -0.051861280383 
 E6   /kcal   : -16.008671473 
 E8   /kcal   : -16.534776776 
 % E8         :  50.808312167 

-------------------------   ----------------
Dispersion correction           -0.051861280
-------------------------   ----------------


-------------------------   --------------------
FINAL SINGLE POINT ENERGY      -819.626554430742
-------------------------   --------------------

                                *** OPTIMIZATION RUN DONE ***



           ************************************************************
           *        Program running with 2 parallel MPI-processes     *
           *              working on a common directory               *
           ************************************************************

------------------------------------------------------------------------------
                              ORCA PROPERTY CALCULATIONS
------------------------------------------------------------------------------

GBWName                                 ... /kaggle/working/GlcNAc/GlcNAc_InterFrag.gbw
Number of atoms                         ...     30
Number of basis functions               ...    285
Max core memory                         ...   3000 MB

Electric properties:
Dipole moment                           ... YES
Quadrupole moment                       ...  NO
Static polarizability (Dipole/Dipole)   ...  NO
Static polarizability (Dipole/Quad.)    ...  NO
Static polarizability (Quad./Quad.)     ...  NO
Static polarizability (Velocity)        ...  NO
Static hyperpolarizability              ...  NO

Atomic electric properties:
Dipole moment                           ...  NO
Quadrupole moment                       ...  NO
Static polarizability                   ...  NO

Choice of electric origin               ... Center of mass
Position of electric origin             ...     0.105312    -0.052234    -0.004008

General magnetic properties:
Magnetizability                         ...  NO

EPR properties:
g-Tensor (aka g-matrix)                 ...  NO
Zero-Field splitting spin-orbit         ...  NO
Zero-field splitting spin-spin          ...  NO
Hyperfine couplings                     ...  NO (   0 nuclei)
Quadrupole couplings                    ...  NO (   0 nuclei)
Contact density                         ...  NO (   0 nuclei)

NMR properties:
Chemical shifts                         ...  NO (   0 nuclei)
Spin-rotation constants                 ...  NO (   0 nuclei)
Spin-spin couplings                     ...  NO (   0 nuclei,    0 pairs)

Choice of magnetic origin               ... GIAO
Position of magnetic origin             ...     0.000000     0.000000     0.000000

Properties with geometric perturbations:
SCF Hessian                             ...  NO
IR spectrum                             ...  NO
VCD spectrum                            ...  NO
X-ray spectroscopy properties:
SCF XES/XAS/RIXS spectra                ...  NO

SCF SOC stabilization energy            ...  NO
Diagonal Born-Oppenheimer correction    ...  NO

-------------
DIPOLE MOMENT
-------------

Method             : SCF
Type of density    : Electron Density
Multiplicity       :   1
Irrep              :   0
Energy             :  -819.5746931503590531 Eh
Basis              : AO
                                X                 Y                 Z
Electronic contribution:      1.516723854      -0.835267667       1.795982412
Nuclear contribution   :     -0.901609571      -0.255435622      -3.159629784
                        -----------------------------------------
Total Dipole Moment    :      0.615114283      -1.090703289      -1.363647372
                        -----------------------------------------
Magnitude (a.u.)       :      1.851359879
Magnitude (Debye)      :      4.705782838



--------------------
Rotational spectrum 
--------------------
 
Rotational constants in cm-1:             0.034868             0.011947             0.009550 
Rotational constants in MHz :          1045.319089           358.174001           286.293706 

Dipole components along the rotational axes: 
x,y,z [a.u.] :     0.608551    -1.008013    -1.428673 
x,y,z [Debye]:     1.546814    -2.562167    -3.631399 

 

Dipole moment calculation done in   0.0 sec 

Maximum memory used throughout the entire PROP-calculation: 18.2 MB

--------------------------------
SUGGESTED CITATIONS FOR THIS RUN
--------------------------------

Below you find a list of papers that are relevant to this ORCA run
We neither can nor want to force you to cite these papers, but we appreciate if you do
You receive ORCA, which is the product of decades of hard work by many enthusiastic individuals, for free
The only thing we kindly ask in return is that you cite our papers,
We deeply appreciate it, if you show your appreciation for ORCA by not just citing the generic ORCA reference.

Please note that relegating all ORCA citations to the supporting information does *not* help us.
SI sections are not indexed - citations you put there will not count into any citation statistics
But we need these citations in order to attract the funding resources that allow us to do what we are doing

Therefore, if you are a happy ORCA user, please consider citing a few of the papers listed below in the main body of your paper

In addition to the list printed below, the program has created the file /kaggle/working/GlcNAc/GlcNAc_InterFrag.bibtex that contains the list in bibtex format
You can import this file easily into all common literature databanks and citation aid programs

It goes without saying that in many instances, there are alternative algorithms to achieve similar
results as the ones you have gotten from ORCA. It is, of course, also the case that in some instances
ORCA just re-implements algorithms worked out by others. We are fully aware of that and we are also
fully appreciative of our colleagues work. Hence this citation list should not be read as indicating
that the listed papers, which are focused on our own work, are the only ones worth citing. It simply
meant to make it easier for users to cite ORCA specific papers. It is not a substitute for doing your
own literature research and citing the relevant literature in a scientifically appropriate manner.

List of essential papers. We consider these as the minimum necessary citations

  1. Neese, F.
     Software update: the ORCA program system, version 6.0
     WIRES Comput. Molec. Sci. 2025 15(1), e70019
     doi.org/10.1002/wcms.70019

List of papers to cite with high priority. The work reported in these papers was absolutely
necessary for this run to complete.
Our perspective: the developers of density functionals and basis sets usually get cited in chemistry papers
Good! But without the algorithms to do something with them, the functionals or basis sets would not do anything.
Hence, in our opinion, the algorithm design and method developments papers are equally worthy of getting cited

  1. Neese, F.
     An improvement of the resolution of the identity approximation for the formation of the Coulomb matrix
     J. Comp. Chem. 2003 24(14), 1740-1747
     doi.org/10.1002/jcc.10318
  2. Neese, F.; Wennmohs, F.; Hansen, A.; Becker, U.
     Efficient, approximate and parallel Hartree-Fock and hybrid DFT calculations. A 'chain-of-spheres' algorithm for the Hartree-Fock exchange
     Chem. Phys. 2009 356(1-3), 98-109
     doi.org/10.1016/j.chemphys.2008.10.036
  3. Grimme, S.; Antony, J.; Ehrlich, S.; Krieg, H.
     A consistent and accurate ab initio parametrization of density functional dispersion correction (DFT-D) for the 94 elements H-Pu
     J. Chem. Phys. 2010 132 , 154104
     doi.org/10.1063/1.3382344
  4. Grimme, S.; Ehrlich, S.; Goerigk, L.
     Effect of the damping function in dispersion corrected density functional theory
     J. Comput. Chem. 2011 32(7), 1456-1465
     doi.org/10.1002/jcc.21759
  5. Garcia-Rates, M.; Neese, F.
     Effect of the Solute Cavity on the Solvation Energy and its Derivatives within the Framework of the Gaussian Charge Scheme
     J. Comput. Chem. 2020 41 , 922-939
     doi.org/10.1002/jcc.26139
  6. Helmich-Paris, B.; de Souza, B.; Neese, F.; Izsák, R.
     An improved chain of spheres for exchange algorithm
     J. Chem. Phys. 2021 155(10), 104109
     doi.org/10.1063/5.0058766
  7. Neese, F.
     The SHARK Integral Generation and Digestion System
     J. Comp. Chem. 2022 44(3), 381
     doi.org/10.1002/jcc.26942

List of suggested additional citations. These are papers that are important in the 'surrounding' of 
of this run, or papers that preceded the highly important papers. If you like your results we are grateful for a citation.

  1. Izsak, R.; Neese, F.
     An overlap fitted chain of spheres exchange method
     J. Chem. Phys. 2011 135 , 144105
     doi.org/10.1063/1.3646921
  2. Izsak, R.; Hansen, A.; Neese, F.
     The resolution of identity and chain of spheres approximations for the LPNO-CCSD singles Fock term
     Molec. Phys. 2012 110 , 2413-2417
     doi.org/10.1080/00268976.2012.687466
  3. Neese, F.
     The ORCA program system
     WIRES Comput. Molec. Sci. 2012 2(1), 73-78
     doi.org/10.1002/wcms.81
  4. Izsak, R.; Neese, F.; Klopper, W.
     Robust fitting techniques in the chain of spheres approximation to the Fock exchange: The role of the complementary space
     J. Chem. Phys. 2013 139 , 
     doi.org/10.1063/1.4819264
  5. Neese, F.
     Software update: the ORCA program system, version 4.0
     WIRES Comput. Molec. Sci. 2018 8(1), 1-6
     doi.org/10.1002/wcms.1327
  6. Neese, F.; Wennmohs, F.; Becker, U.; Riplinger, C.
     The ORCA quantum chemistry program package
     J. Chem. Phys. 2020 152(22), 224108
     doi.org/10.1063/5.0004608
  7. Neese, F.
     Software update: The ORCA program system—Version 5.0
     WIRES Comput. Molec. Sci. 2022 12(1), e1606
     doi.org/10.1002/wcms.1606

List of optional additional citations

  1. Neese, F.
     Approximate second-order SCF convergence for spin unrestricted wavefunctions
     Chem. Phys. Lett. 2000 325(1-3), 93-98
     doi.org/10.1016/s0009-2614(00)00662-x

Timings for individual modules:

Sum of individual times          ...     2276.442 sec (=  37.941 min)
Startup calculation              ...       73.963 sec (=   1.233 min)   3.2 %
SCF iterations                   ...     1369.896 sec (=  22.832 min)  60.2 %
Property calculations            ...        0.450 sec (=   0.008 min)   0.0 %
SCF Gradient evaluation          ...      831.945 sec (=  13.866 min)  36.5 %
Geometry relaxation              ...        0.188 sec (=   0.003 min)   0.0 %
                             ****ORCA TERMINATED NORMALLY****
TOTAL RUN TIME: 0 days 0 hours 38 minutes 5 seconds 152 msec
