
                                 *****************
                                 * O   R   C   A *
                                 *****************

                                            #,                                       
                                            ###                                      
                                            ####                                     
                                            #####                                    
                                            ######                                   
                                           ########,                                 
                                     ,,################,,,,,                         
                               ,,#################################,,                 
                          ,,##########################################,,             
                       ,#########################################, ''#####,          
                    ,#############################################,,   '####,        
                  ,##################################################,,,,####,       
                ,###########''''           ''''###############################       
              ,#####''   ,,,,##########,,,,          '''####'''          '####       
            ,##' ,,,,###########################,,,                        '##       
           ' ,,###''''                  '''############,,,                           
         ,,##''                                '''############,,,,        ,,,,,,###''
      ,#''                                            '''#######################'''  
     '                                                          ''''####''''         
             ,#######,   #######,   ,#######,      ##                                
            ,#'     '#,  ##    ##  ,#'     '#,    #''#        ,####,    ,#,          
            ##       ##  ##   ,#'  ##            #'  '#       #'       ,# #          
            ##       ##  #######   ##           ,######,      #####,      #          
            '#,     ,#'  ##    ##  '#,     ,#' ,#      #,     #,   #      #          
             '#######'   ##     ##  '#######'  #'      '#     '####' #    #          



                #########################################################
                #                        -***-                          #
                #          Department of theory and spectroscopy        #
                #                                                       #
                #                      Frank Neese                      #
                #                                                       #
                #     Directorship, Architecture, Infrastructure        #
                #                    SHARK, DRIVERS                     #
                #        Core code/Algorithms in most modules           #
                #                                                       #
                #        Max Planck Institute fuer Kohlenforschung      #
                #                Kaiser Wilhelm Platz 1                 #
                #                 D-45470 Muelheim/Ruhr                 #
                #                      Germany                          #
                #                                                       #
                #                  All rights reserved                  #
                #                        -***-                          #
                #########################################################


                         Program Version 6.1.1  -  RELEASE   -
                                (GIT: $487d211c$)
                          ($2025-11-21 10:33:24 +0100$)
                                                                         
                                  - NO-DMRG VERSION -                    
                                                                         


 With contributions from (in alphabetic order):
[Max-Planck-Institut fuer Kohlenforschung]                               
  Daniel Aravena         : Magnetic Suceptibility                        
  Michael Atanasov       : Ab Initio Ligand Field Theory (pilot matlab implementation)
  Alexander A. Auer      : GIAO ZORA, VPT2 properties, NMR spectrum      
  Ute Becker             : All parallelization in ORCA, NUMFREQ, NUMCALC 
  Giovanni Bistoni       : ED, misc. LED, open-shell LED, HFLD           
  Dmytro Bykov           : pre 5.0 version of the SCF Hessian            
  Marcos Casanova-Páez   : Triplet and SCS-CIS(D). UHF-(DLPNO)-IP/EA/STEOM-CCSD. UHF-CVS-IP/STEOM-CCSD   
  Vijay G. Chilkuri      : MRCI spin determinant printing, contributions to CSF-ICE 
  Pauline Colinet        : FMM embedding                                 
  Dipayan Datta          : RHF DLPNO-CCSD density                        
  Achintya Kumar Dutta   : EOM-CC, STEOM-CC                              
  Nicolas Foglia         : Exact transition moments, OPA infrastructure, MCD improvements    
  Dmitry Ganyushin       : Spin-Orbit,Spin-Spin,Magnetic field MRCI      
  Miquel Garcia-Rates    : C-PCM and meta-GGA Hessian, CCSD/C-PCM, Gaussian charge scheme 
  Tiago L. C. Gouveia    : GS-ROHF, GS-ROCIS                             
  Yang Guo               : DLPNO-NEVPT2, F12-NEVPT2, CIM, IAO-localization        
  Andreas Hansen         : Spin unrestricted coupled pair/coupled cluster methods 
  Ingolf Harden          : AUTO-CI MPn and infrastructure                
  Benjamin Helmich-Paris : MC-RPA, TRAH-(SCF,CASSCF), AVAS, COSX integrals, SCF dyn. polar., MC-PDFT, srDFT 
  Lee Huntington         : MR-EOM, pCC                                   
  Robert Izsak           : Overlap fitted RIJCOSX, COSX-SCS-MP3, EOM     
  Riya Kayal             : Wick's Theorem for AUTO-CI, AUTO-CI UHF-CCSDT 
  Emily Kempfer          : AUTO-CI RHF CISDT and CCSDT, approximate NEVPT4
  Christian Kollmar      : KDIIS, OOCD, Brueckner-CCSD(T), CCSD density, CASPT2, CASPT2-K, improved NEVPT2 
  Axel Koslowski         : Symmetry handling                             
  Simone Kossmann        : meta-GGA functionals, TD-DFT gradient, OOMP2, (MP2 Hessian; deprecated post 5.0) 
  Lucas Lang             : DCDCAS, Hyperfine gauge corrections, ICE-SOC+SSC
  Marvin Lechner         : AUTO-CI (C++ implementation), FIC-MRCC        
  Spencer Leger          : CASSCF response                               
  Dagmar Lenk            : GEPOL surface, SMD, ORCA-2-JSON               
  Dimitrios Liakos       : Extrapolation schemes; Compound Job, Property file
  Dimitrios Manganas     : Further ROCIS development; embedding schemes. LFT, Crystal Embedding 
  Dimitrios Pantazis     : SARC Basis sets                               
  Anastasios Papadopoulos: AUTO-CI, single reference methods and gradients 
  Taras Petrenko         : pre 6.0 DFT Hessian and TD-DFT gradient,  ECA, NRVS 
  Petra Pikulova         : Analytic Raman intensities                    
  Peter Pinski           : DLPNO-MP2, DLPNO-MP2 Gradient                 
  Shashank Vittal Rao    : ES-AILFT, MagRelax                            
  Christoph Reimann      : Effective Core Potentials                     
  Marius Retegan         : Local ZFS, SOC                                
  Christoph Riplinger    : Optimizer, TS searches, QM/MM, DLPNO-CCSD(T), (RO)-DLPNO pert. Triples 
  Michael Roemelt        : Original ROCIS implementation, recursive CI coupling coefficients
  Masaaki Saitow         : Open-shell DLPNO-CCSD energy and density      
  Barbara Sandhoefer     : DKH picture change effects                    
  Yorick L. A. Schmerwitz: GMF and freeze-and-release deltaSCF, NEB S-IDPP initial path                    
  Kantharuban Sivalingam : CASSCF convergence/infrastructure, NEVPT2, NEVPT3, NEVPT4(SD), FIC-MRCI and CEPA variants
  Bernardo de Souza      : ESD, SOC TD-DFT                               
  Georgi L. Stoychev     : AutoAux, RI-MP2 NMR, DLPNO-MP2 response, X2C  
  Van Anh Tran           : RI-MP2 g-tensors                              
  Willem Van den Heuvel  : Paramagnetic NMR                              
  Zikuan Wang            : NOTCH, Electric field optimization            
  Frank Wennmohs         : Technical directorship and infrastructure     
  Hang Xu                : AUTO-CI-Response properties                   
                                                                         
[FACCTs GmbH]                                                            
  Markus Bursch, Nicolas Foglia, Miquel Garcia-Rates, Ingolf Harden, Hagen Neugebauer, Anastasios Papadopoulos, 
  Christoph Riplinger, Bernardo de Souza, Georgi L. Stoychev                                                    
                                                                 
  APM, various basis sets, CI-OPT, improved COSX, DLPNO-Multilevel,           
  DOCKER, DRACO, updates on ESD, Fragmentator, GOAT, IRC, LR-CPCM, L-BFGS, MBIS, meta-GGA TD-DFT gradient, ML-optimized integration grids, 
  MM, NACMEs, nearIR, NEB, NEB-TS, NL-DFT gradient (VV10), 2- and 3-layer-ONIOM, interface openCOSMO-RS, QMMM,   
  Crystal-QMMM, RESP, rigid body optimization, SF, symmetry and pop. for TD-DFT, various functionals, SOLVATOR                                   
                                                                         
[Other institutions]                                                     
  V. Asgeirsson          : NEB                                           
  Christoph Bannwarth    : sTDA-DFT, sTD-DFT, PBEh-3c, B97-3c, D3        
  Giovanni Bistoni       : ETS/NOCV, ADLD/ADEX, COVALED                  
  Martin Brehm           : Molecular dynamics                            
  Ronald Cardenas        : ETS/NOCV                                      
  Martina Colucci        : COVALED                                       
  Sebastian Ehlert       : rSCAN, r2SCAN, r2SCAN-3c, D4, dhf basis sets  
  Marvin Friede          : D4 for Fr, Ra, Ac-Lr                          
  Lars Goerigk           : TD-DFT with DH, B97 family of functionals     
  Stefan Grimme          : VdW corrections, initial TS optimization, DFT functionals, gCP, sTDA/sTD-DF 
  Waldemar Hujo          : DFT-NL                                        
  H. Jonsson             : NEB                                           
  Holger Kruse           : gCP                                           
  Marcel Mueller         : wB97X-3c, vDZP basis set                      
  Hagen Neugebauer       : wr2SCAN, Native XTB                           
  Gianluca Regni         : ADLD/ADEX                                     
  Tobias Risthaus        : pre 6.0 range-separated hybrid DFT and stability analysis
  Lukas Wittmann         : regularized MP2, r2SCAN double-hybrids, wr2SCAN        
                                                                         
We gratefully acknowledge several colleagues who have allowed us to      
interface, adapt or use parts of their codes:                            
  Ed Valeev, F. Pavosevic, A. Kumar             : LibInt (2-el integral package), F12 methods 
  Garnet Chan, S. Sharma, J. Yang, R. Olivares  : DMRG                   
  Ulf Ekstrom                                   : XCFun DFT Library      
  Mihaly Kallay                                 : mrcc  (arbitrary order and MRCC methods)
  Frank Weinhold                                : gennbo (NPA and NBO analysis)           
  Simon Mueller                                 : openCOSMO-RS                            
  Christopher J. Cramer and Donald G. Truhlar   : smd solvation model                     
  S Lehtola, MJT Oliveira, MAL Marques          : LibXC Library                           
  Liviu Ungur et al                             : ANISO software                          


 Your calculation uses the libint2 library for the computation of 2-el integrals
 For citations please refer to: http://libint.valeyev.net

 Your ORCA version has been built with support for libXC version: 7.0.0
 For citations please refer to: https://libxc.gitlab.io

 This ORCA versions uses:
   CBLAS   interface :  Fast vector & matrix operations
   LAPACKE interface :  Fast linear algebra routines
   SCALAPACK package :  Parallel linear algebra routines
   Shared memory     :  Shared parallel matrices
   BLAS/LAPACK       :  OpenBLAS 0.3.29  USE64BITINT DYNAMIC_ARCH NO_AFFINITY SkylakeX SINGLE_THREADED
        Core in use  :  SkylakeX
   Copyright (c) 2011-2014, The OpenBLAS Project


  ***********************************
  * Starting time: Sat Mar 14 00:11:50 2026
  * Host name:     gaurav-kushwaha
  * Process ID:    7321
  * Working dir.:  /home/friday_code/Desktop/DP-Regenrate-Results/orca_6_1_1_linux_x86-64_shared_openmpi418_nodmrg
  ***********************************

NOTE: MaxCore=3000 MB was set to SCF,MP2,MDCI,CIPSI,MRCI,RASCI and CIS
      => If you want to overwrite this, your respective input block should be placed after the MaxCore statement
Your calculation utilizes the atom-pairwise dispersion correction
with the Becke-Johnson damping scheme (D3BJ)


Warning: RI is on but no J-basis has been assigned. Assigning Def2/J (nothing to worry about!)
================================================================================

----- Orbital basis set information -----
Your calculation utilizes the basis: 6-31G(d,p)
   H-He, Li-Ne : W. J. Hehre, R. Ditchfield and J.A. Pople, J. Chem. Phys. 56, 2257 (1972).
                 Note: He and Ne are unpublished basis sets taken from the Gaussian program.
                 Note: Li and B from J. D. Dill and J. A. Pople, J. Chem. Phys. 62, 2921 (1975).
   Na - Ar     : M. M. Francl, W. J. Pietro, W. J. Hehre, J. S. Binkley, M. S. Gordon, 
                 D. J. DeFrees and J. A. Pople, J. Chem. Phys. 77, 3654 (1982).
   K - Zn      : V. A. Rassolov, J. A. Pople, M. A. Ratner, and T. L. Windus, J. Chem. Phys. 109, 1223 (1998).

----- AuxJ basis set information -----
Your calculation utilizes the auxiliary basis: def2/J
   H-Rn: F. Weigend, Phys. Chem. Chem. Phys. 8, 1057 (2006).
   Fr-Lr: K. Eichkorn, F. Weigend, O. Treutler, R. Ahlrichs; Theor. Chem. Acc. 97, 119 (1997).

================================================================================
                                        WARNINGS
                       Please study these warnings very carefully!
================================================================================

WARNING: Old DensityContainer found on disk!
         Will remove this file - 
         If you want to keep old densities, please start your calculation with a different basename. 


================================================================================
                                       INPUT FILE
================================================================================
NAME = /home/friday_code/Desktop/DP-Regenrate-Results/calculations/GlcNAc/GlcNAc-2/GlcNAc_InterFrag.inp
|  1> !RKS B3LYP 6-31G(d,p) TightSCF D3BJ
|  2> 
|  3> %pal nprocs 2 end
|  4> %maxcore 3000
|  5> 
|  6> %elprop
|  7>   Polar 1      # polarizability via CP-SCF :contentReference[oaicite:14]{index=14}
|  8> end
|  9> 
| 10> %output
| 11>   PrintLevel Normal
| 12>   Print[ P_OrbEn ] 2
| 13> end
| 14> 
| 15> *xyz 0 1
| 16> O      1.528503   -1.155901    0.326305
| 17> O     -0.939618    2.167746   -0.049308
| 18> O      1.872420    2.423035   -0.482245
| 19> O     -0.248532   -2.589715    0.323027
| 20> O      4.305923   -1.118684   -0.012457
| 21> O     -3.194747    0.241591    1.265170
| 22> N     -2.000198   -0.485479   -0.535336
| 23> C     -0.095851    1.078628   -0.403868
| 24> C     -0.694521   -0.264164    0.056523
| 25> C      1.327867    1.253764    0.126855
| 26> C      2.161368    0.011129   -0.217818
| 27> C      0.256284   -1.422119   -0.258893
| 28> C      3.563837    0.036855    0.366645
| 29> C     -3.156894   -0.171139    0.093628
| 30> C     -4.417286   -0.365740   -0.716497
| 31> H     -0.048979    1.088499   -1.499971
| 32> H     -0.826272   -0.238170    1.141960
| 33> H      1.287443    1.364808    1.219972
| 34> H      2.227738   -0.081267   -1.312702
| 35> H      0.380708   -1.536927   -1.347572
| 36> H      3.495437    0.125088    1.461224
| 37> H      4.103618    0.907138   -0.015674
| 38> H     -2.035138   -0.736452   -1.515426
| 39> H     -1.100057    2.113705    0.905489
| 40> H      2.605912    2.731313    0.067907
| 41> H      0.228610   -3.340414   -0.060599
| 42> H      3.760203   -1.879466    0.238617
| 43> H     -5.115296   -0.981690   -0.142657
| 44> H     -4.888687    0.609970   -0.871843
| 45> H     -4.235396   -0.832442   -1.687058
| 46> *
| 47> 
| 48>                          ****END OF INPUT****
================================================================================

                       ****************************
                       * Single Point Calculation *
                       ****************************

---------------------------------
CARTESIAN COORDINATES (ANGSTROEM)
---------------------------------
  O      1.528503   -1.155901    0.326305
  O     -0.939618    2.167746   -0.049308
  O      1.872420    2.423035   -0.482245
  O     -0.248532   -2.589715    0.323027
  O      4.305923   -1.118684   -0.012457
  O     -3.194747    0.241591    1.265170
  N     -2.000198   -0.485479   -0.535336
  C     -0.095851    1.078628   -0.403868
  C     -0.694521   -0.264164    0.056523
  C      1.327867    1.253764    0.126855
  C      2.161368    0.011129   -0.217818
  C      0.256284   -1.422119   -0.258893
  C      3.563837    0.036855    0.366645
  C     -3.156894   -0.171139    0.093628
  C     -4.417286   -0.365740   -0.716497
  H     -0.048979    1.088499   -1.499971
  H     -0.826272   -0.238170    1.141960
  H      1.287443    1.364808    1.219972
  H      2.227738   -0.081267   -1.312702
  H      0.380708   -1.536927   -1.347572
  H      3.495437    0.125088    1.461224
  H      4.103618    0.907138   -0.015674
  H     -2.035138   -0.736452   -1.515426
  H     -1.100057    2.113705    0.905489
  H      2.605912    2.731313    0.067907
  H      0.228610   -3.340414   -0.060599
  H      3.760203   -1.879466    0.238617
  H     -5.115296   -0.981690   -0.142657
  H     -4.888687    0.609970   -0.871843
  H     -4.235396   -0.832442   -1.687058

----------------------------
CARTESIAN COORDINATES (A.U.)
----------------------------
  NO LB      ZA    FRAG     MASS         X           Y           Z
   0 O     8.0000    0    15.999    2.888452   -2.184336    0.616627
   1 O     8.0000    0    15.999   -1.775621    4.096446   -0.093179
   2 O     8.0000    0    15.999    3.538361    4.578873   -0.911311
   3 O     8.0000    0    15.999   -0.469657   -4.893852    0.610433
   4 O     8.0000    0    15.999    8.137015   -2.114006   -0.023540
   5 O     8.0000    0    15.999   -6.037197    0.456541    2.390825
   6 N     7.0000    0    14.007   -3.779826   -0.917422   -1.011638
   7 C     6.0000    0    12.011   -0.181132    2.038312   -0.763200
   8 C     6.0000    0    12.011   -1.312454   -0.499198    0.106813
   9 C     6.0000    0    12.011    2.509305    2.369271    0.239721
  10 C     6.0000    0    12.011    4.084394    0.021031   -0.411616
  11 C     6.0000    0    12.011    0.484307   -2.687415   -0.489237
  12 C     6.0000    0    12.011    6.734676    0.069646    0.692859
  13 C     6.0000    0    12.011   -5.965665   -0.323406    0.176931
  14 C     6.0000    0    12.011   -8.347461   -0.691148   -1.353983
  15 H     1.0000    0     1.008   -0.092557    2.056965   -2.834534
  16 H     1.0000    0     1.008   -1.561428   -0.450076    2.157992
  17 H     1.0000    0     1.008    2.432915    2.579113    2.305413
  18 H     1.0000    0     1.008    4.209815   -0.153572   -2.480647
  19 H     1.0000    0     1.008    0.719434   -2.904371   -2.546542
  20 H     1.0000    0     1.008    6.605419    0.236382    2.761313
  21 H     1.0000    0     1.008    7.754714    1.714242   -0.029620
  22 H     1.0000    0     1.008   -3.845853   -1.391693   -2.863740
  23 H     1.0000    0     1.008   -2.078806    3.994324    1.711126
  24 H     1.0000    0     1.008    4.924460    5.161434    0.128326
  25 H     1.0000    0     1.008    0.432010   -6.312468   -0.114516
  26 H     1.0000    0     1.008    7.105754   -3.551676    0.450921
  27 H     1.0000    0     1.008   -9.666509   -1.855125   -0.269583
  28 H     1.0000    0     1.008   -9.238280    1.152676   -1.647545
  29 H     1.0000    0     1.008   -8.003739   -1.573087   -3.188078

--------------------------------
INTERNAL COORDINATES (ANGSTROEM)
--------------------------------
 O      0   0   0     0.000000000000     0.00000000     0.00000000
 O      1   0   0     4.156842043790     0.00000000     0.00000000
 O      2   1   0     2.856600187799    60.04386726     0.00000000
 O      1   2   3     2.283349890644    92.28435914   193.46556453
 O      1   2   3     2.798250641764   124.59386880     1.03885765
 O      2   1   3     3.243999430202    84.34117537   190.39448791
 N      6   2   1     2.279780681192    60.33637920   308.94565504
 C      2   1   3     1.422615043437    19.65054923    73.45772735
 C      7   6   2     1.450541220867    95.78177191    54.57217753
 C      3   2   1     1.426441534466    59.08453645   346.86663933
 C      1   2   3     1.434763732555    64.99304319   350.97384845
 C      4   1   2     1.398838982682    36.44768599    39.41043941
 C      5   1   2     1.424668501203    57.42300128    25.12487580
 C      6   2   1     1.242694475836    78.11341105   282.98242084
 C     14   6   2     1.510880557321   121.52432548   229.03846522
 H      8   2   1     1.097149127345   105.51224432   178.87411116
 H      9   7   6     1.093712711367   107.46561643    21.21449698
 H     10   3   2     1.099486082404   110.84131706   269.64663502
 H     11   1   2     1.100778347885   109.60493611   259.54799014
 H     12   4   1     1.101764118893   111.39765530   119.50718622
 H     13   5   1     1.100257610530   111.23235110    91.01534991
 H     13   5   1     1.093125722784   107.18558218   209.28781859
 H      7   6   2     1.012316481358   145.65053408   247.51662663
 H      2   1   3     0.969689854341    87.97738590   247.25966326
 H      3   2   1     0.967322625835   133.52938324   261.10709912
 H      4   1   2     0.968701390853    95.96138436   151.35348732
 H      5   1   2     0.969349123588    53.08856026   177.65091553
 H     15  14   6     1.093574281062   108.88360736   307.97609739
 H     15  14   6     1.094696892577   108.69435793    64.86643429
 H     15  14   6     1.092192008589   113.11585910   186.14374949

---------------------------
INTERNAL COORDINATES (A.U.)
---------------------------
 O      0   0   0     0.000000000000     0.00000000     0.00000000
 O      1   0   0     7.855293044732     0.00000000     0.00000000
 O      2   1   0     5.398192029048    60.04386726     0.00000000
 O      1   2   3     4.314905961237    92.28435914   193.46556453
 O      1   2   3     5.287927367003   124.59386880     1.03885765
 O      2   1   3     6.130270501678    84.34117537   190.39448791
 N      6   2   1     4.308161132858    60.33637920   308.94565504
 C      2   1   3     2.688352826092    19.65054923    73.45772735
 C      7   6   2     2.741125653403    95.78177191    54.57217753
 C      3   2   1     2.695583846191    59.08453645   346.86663933
 C      1   2   3     2.711310521411    64.99304319   350.97384845
 C      4   1   2     2.643422582723    36.44768599    39.41043941
 C      5   1   2     2.692233298898    57.42300128    25.12487580
 C      6   2   1     2.348352227467    78.11341105   282.98242084
 C     14   6   2     2.855150474403   121.52432548   229.03846522
 H      8   2   1     2.073311378753   105.51224432   178.87411116
 H      9   7   6     2.066817493672   107.46561643    21.21449698
 H     10   3   2     2.077727583802   110.84131706   269.64663502
 H     11   1   2     2.080169611653   109.60493611   259.54799014
 H     12   4   1     2.082032448890   111.39765530   119.50718622
 H     13   5   1     2.079185560665   111.23235110    91.01534991
 H     13   5   1     2.065708246006   107.18558218   209.28781859
 H      7   6   2     1.913000910621   145.65053408   247.51662663
 H      2   1   3     1.832448259546    87.97738590   247.25966326
 H      3   2   1     1.827974845973   133.52938324   261.10709912
 H      4   1   2     1.830580334261    95.96138436   151.35348732
 H      5   1   2     1.831804371737    53.08856026   177.65091553
 H     15  14   6     2.066555898307   108.88360736   307.97609739
 H     15  14   6     2.068677326625   108.69435793    64.86643429
 H     15  14   6     2.063943781890   113.11585910   186.14374949

---------------------
BASIS SET INFORMATION
---------------------
There are 4 groups of distinct atoms

 Group   1 Type O   : 10s4p1d contracted to 3s2p1d pattern {631/31/1}
 Group   2 Type N   : 10s4p1d contracted to 3s2p1d pattern {631/31/1}
 Group   3 Type C   : 10s4p1d contracted to 3s2p1d pattern {631/31/1}
 Group   4 Type H   : 4s1p contracted to 2s1p pattern {31/1}

Atom   0O    basis set group =>   1
Atom   1O    basis set group =>   1
Atom   2O    basis set group =>   1
Atom   3O    basis set group =>   1
Atom   4O    basis set group =>   1
Atom   5O    basis set group =>   1
Atom   6N    basis set group =>   2
Atom   7C    basis set group =>   3
Atom   8C    basis set group =>   3
Atom   9C    basis set group =>   3
Atom  10C    basis set group =>   3
Atom  11C    basis set group =>   3
Atom  12C    basis set group =>   3
Atom  13C    basis set group =>   3
Atom  14C    basis set group =>   3
Atom  15H    basis set group =>   4
Atom  16H    basis set group =>   4
Atom  17H    basis set group =>   4
Atom  18H    basis set group =>   4
Atom  19H    basis set group =>   4
Atom  20H    basis set group =>   4
Atom  21H    basis set group =>   4
Atom  22H    basis set group =>   4
Atom  23H    basis set group =>   4
Atom  24H    basis set group =>   4
Atom  25H    basis set group =>   4
Atom  26H    basis set group =>   4
Atom  27H    basis set group =>   4
Atom  28H    basis set group =>   4
Atom  29H    basis set group =>   4
---------------------------------
AUXILIARY/J BASIS SET INFORMATION
---------------------------------
There are 4 groups of distinct atoms

 Group   1 Type O   : 12s5p4d2f1g contracted to 6s4p3d1f1g pattern {711111/2111/211/2/1}
 Group   2 Type N   : 12s5p4d2f1g contracted to 6s4p3d1f1g pattern {711111/2111/211/2/1}
 Group   3 Type C   : 12s5p4d2f1g contracted to 6s4p3d1f1g pattern {711111/2111/211/2/1}
 Group   4 Type H   : 5s2p1d contracted to 3s1p1d pattern {311/2/1}

Atom   0O    basis set group =>   1
Atom   1O    basis set group =>   1
Atom   2O    basis set group =>   1
Atom   3O    basis set group =>   1
Atom   4O    basis set group =>   1
Atom   5O    basis set group =>   1
Atom   6N    basis set group =>   2
Atom   7C    basis set group =>   3
Atom   8C    basis set group =>   3
Atom   9C    basis set group =>   3
Atom  10C    basis set group =>   3
Atom  11C    basis set group =>   3
Atom  12C    basis set group =>   3
Atom  13C    basis set group =>   3
Atom  14C    basis set group =>   3
Atom  15H    basis set group =>   4
Atom  16H    basis set group =>   4
Atom  17H    basis set group =>   4
Atom  18H    basis set group =>   4
Atom  19H    basis set group =>   4
Atom  20H    basis set group =>   4
Atom  21H    basis set group =>   4
Atom  22H    basis set group =>   4
Atom  23H    basis set group =>   4
Atom  24H    basis set group =>   4
Atom  25H    basis set group =>   4
Atom  26H    basis set group =>   4
Atom  27H    basis set group =>   4
Atom  28H    basis set group =>   4
Atom  29H    basis set group =>   4

Checking for AutoStart:
The File: /home/friday_code/Desktop/DP-Regenrate-Results/calculations/GlcNAc/GlcNAc-2/GlcNAc_InterFrag.gbw exists
Trying to determine its content:
     ... Fine, the file contains calculation information
     ... Fine, the calculation information was read
     ... Fine, the file contains a basis set
     ... Fine, the basis set was read
     ... Fine, the file contains a geometry
     ... Fine, the geometry was read
     ... Fine, the file contains a set of orbitals
     ... Fine, the orbitals can be read
     => possible old guess file was deleted
     => GBW file was renamed to GES file
     => GES file is set as startup file
     => Guess is set to MORead
     ... now leaving AutoStart



           ************************************************************
           *        Program running with 2 parallel MPI-processes     *
           *              working on a common directory               *
           ************************************************************
------------------------------------------------------------------------------
                             ORCA STARTUP CALCULATIONS
                           -- RI-GTO INTEGRALS CHOSEN --
------------------------------------------------------------------------------
------------------------------------------------------------------------------
                   ___                                                        
                  /   \      - P O W E R E D   B Y -                         
                 /     \                                                     
                 |  |  |   _    _      __       _____    __    __             
                 |  |  |  | |  | |    /  \     |  _  \  |  |  /  |          
                  \  \/   | |  | |   /    \    | | | |  |  | /  /          
                 / \  \   | |__| |  /  /\  \   | |_| |  |  |/  /          
                |  |  |   |  __  | /  /__\  \  |    /   |      \           
                |  |  |   | |  | | |   __   |  |    \   |  |\   \          
                \     /   | |  | | |  |  |  |  | |\  \  |  | \   \       
                 \___/    |_|  |_| |__|  |__|  |_| \__\ |__|  \__/        
                                                                              
                      - O R C A' S   B I G   F R I E N D -                    
                                      &                                       
                       - I N T E G R A L  F E E D E R -                       
                                                                              
 v1 FN, 2020, v2 2021, v3 2022-2024                                           
------------------------------------------------------------------------------


----------------------
SHARK INTEGRAL PACKAGE
----------------------

Number of atoms                             ...     30
Number of basis functions                   ...    285
Number of shells                            ...    135
Maximum angular momentum                    ...      2
Integral batch strategy                     ... SHARK/LIBINT Hybrid
RI-J (if used) integral strategy            ... SPLIT-RIJ (Revised 2003 algorithm where possible)
Printlevel                                  ...      1
Contraction scheme used                     ... SEGMENTED contraction
Prescreening option                         ... SCHWARTZ
   Thresh                                   ... 2.500e-11
   Tcut                                     ... 2.500e-12
   Tpresel                                  ... 2.500e-12 
Coulomb Range Separation                    ... NOT USED
Exchange Range Separation                   ... NOT USED
Multipole approximations                    ... NOT USED
Finite Nucleus Model                        ... NOT USED
CABS basis                                  ... NOT available
Auxiliary Coulomb fitting basis             ... AVAILABLE
   # of basis functions in Aux-J            ...    900
   # of shells in Aux-J                     ...    300
   Maximum angular momentum in Aux-J        ...      4
Auxiliary J/K fitting basis                 ... NOT available
Auxiliary Correlation fitting basis         ... NOT available
Auxiliary 'external' fitting basis          ... NOT available

Checking pre-screening integrals            ... done (  0.0 sec) Dimension = 135
   => SHARK Basis and OBASIS are compatible. Storing Pre-screening
Shell pair information
Shell pair cut-off parameter TPreSel        ...   2.5e-12
Total number of shell pairs                 ...      9180
Shell pairs after pre-screening             ...      7243
Total number of primitive shell pairs       ...     45510
Primitive shell pairs kept                  ...     21935
          la=0 lb=0:   2263 shell pairs
          la=1 lb=0:   2655 shell pairs
          la=1 lb=1:    826 shell pairs
          la=2 lb=0:    876 shell pairs
          la=2 lb=1:    526 shell pairs
          la=2 lb=2:     97 shell pairs

Checking whether 4 symmetric matrices of dimension 285 fit in memory
:Max Core in MB      =   3000.00
 MB in use           =     13.12
 MB left             =   2986.88
 MB needed           =      1.24
 Data fit in memory  = YES
Calculating RI/J V-Matrix + Cholesky decomp.... done (  0.0 sec)
Calculating Nuclear repulsion               ... done (  0.0 sec) ENN=   1132.337990468381 Eh

Diagonalization of the overlap matrix:
Smallest eigenvalue                        ... 1.936e-03
Time for diagonalization                   ...    0.008 sec
Threshold for overlap eigenvalues          ... 1.000e-07
Number of eigenvalues below threshold      ... 0
Time for construction of square roots      ...    0.003 sec
Total time needed                          ...    0.011 sec

-------------------
DFT GRID GENERATION
-------------------

General Integration Accuracy     IntAcc      ... 4.388
Radial Grid Type                 RadialGrid  ... OptM3 with GC (2021)
Angular Grid (max. ang.)         AngularGrid ... 4 (Lebedev-302)
Angular grid pruning method      GridPruning ... 4 (adaptive)
Weight generation scheme         WeightScheme... mBecke (2022)
Basis function cutoff            BFCut       ... 1.0000e-11
Integration weight cutoff        WCut        ... 1.0000e-14
Partially contracted basis set               ... off
Rotationally invariant grid construction     ... off
Angular grids for H and He will be reduced by one unit

Total number of grid points                  ...   137718
Total number of batches                      ...     2166
Average number of points per batch           ...       63
Average number of grid points per atom       ...     4591

--------------------
COSX GRID GENERATION
--------------------

GRIDX 1
-------
General Integration Accuracy     IntAcc      ... 3.816
Radial Grid Type                 RadialGrid  ... OptM3 with GC (2021)
Angular Grid (max. ang.)         AngularGrid ... 1 (Lebedev-50)
Angular grid pruning method      GridPruning ... 4 (adaptive)
Weight generation scheme         WeightScheme... mBecke (2022)
Basis function cutoff            BFCut       ... 1.0000e-11
Integration weight cutoff        WCut        ... 1.0000e-14
Partially contracted basis set               ... on
Rotationally invariant grid construction     ... off
Angular grids for H and He will be reduced by one unit

Total number of grid points                  ...    17518
Total number of batches                      ...      156
Average number of points per batch           ...      112
Average number of grid points per atom       ...      584
UseSFitting                                  ... on

GRIDX 2
-------
General Integration Accuracy     IntAcc      ... 4.020
Radial Grid Type                 RadialGrid  ... OptM3 with GC (2021)
Angular Grid (max. ang.)         AngularGrid ... 2 (Lebedev-110)
Angular grid pruning method      GridPruning ... 4 (adaptive)
Weight generation scheme         WeightScheme... mBecke (2022)
Basis function cutoff            BFCut       ... 1.0000e-11
Integration weight cutoff        WCut        ... 1.0000e-14
Partially contracted basis set               ... on
Rotationally invariant grid construction     ... off
Angular grids for H and He will be reduced by one unit

Total number of grid points                  ...    37697
Total number of batches                      ...      309
Average number of points per batch           ...      121
Average number of grid points per atom       ...     1257
UseSFitting                                  ... on

GRIDX 3
-------
General Integration Accuracy     IntAcc      ... 4.338
Radial Grid Type                 RadialGrid  ... OptM3 with GC (2021)
Angular Grid (max. ang.)         AngularGrid ... 3 (Lebedev-194)
Angular grid pruning method      GridPruning ... 4 (adaptive)
Weight generation scheme         WeightScheme... mBecke (2022)
Basis function cutoff            BFCut       ... 1.0000e-11
Integration weight cutoff        WCut        ... 1.0000e-14
Partially contracted basis set               ... on
Rotationally invariant grid construction     ... off
Angular grids for H and He will be reduced by one unit

Total number of grid points                  ...    82399
Total number of batches                      ...      659
Average number of points per batch           ...      125
Average number of grid points per atom       ...     2747
UseSFitting                                  ... on
Grids setup in   1.6 sec
Initializing property integral containers    ... done (  0.0 sec)

SHARK setup successfully completed in   1.8 seconds

Maximum memory used throughout the entire STARTUP-calculation: 47.8 MB


           ************************************************************
           *        Program running with 2 parallel MPI-processes     *
           *              working on a common directory               *
           ************************************************************
-------------------------------------------------------------------------------
                                 ORCA GUESS
                   Start orbitals & Density for SCF / CASSCF
-------------------------------------------------------------------------------

------------
SCF SETTINGS
------------
Hamiltonian:
 Density Functional     Method          .... DFT(GTOs)
 Exchange Functional    Exchange        .... B88
   X-Alpha parameter    XAlpha          ....  0.666667
   Becke's b parameter  XBeta           ....  0.004200
 Correlation Functional Correlation     .... LYP
 LDA part of GGA corr.  LDAOpt          .... VWN-5
 Gradients option       PostSCFGGA      .... off
 Hybrid DFT is turned on
   Fraction HF Exchange ScalHFX         ....  0.200000
   Scaling of DF-GGA-X  ScalDFX         ....  0.720000
   Scaling of DF-GGA-C  ScalDFC         ....  0.810000
   Scaling of DF-LDA-C  ScalLDAC        ....  1.000000
   Perturbative correction              ....  0.000000
   NL short-range parameter             ....  4.800000
 RI-approximation to the Coulomb term is turned on
   Number of AuxJ basis functions       .... 900
   RIJ-COSX (HFX calculated with COS-X)).... on


General Settings:
 Integral files         IntName         .... /home/friday_code/Desktop/DP-Regenrate-Results/calculations/GlcNAc/GlcNAc-2/GlcNAc_InterFrag
 Hartree-Fock type      HFTyp           .... RHF
 Total Charge           Charge          ....    0
 Multiplicity           Mult            ....    1
 Number of Electrons    NEL             ....  118
 Basis Dimension        Dim             ....  285
 Nuclear Repulsion      ENuc            ....   1132.3379904684 Eh

Convergence Acceleration:
 AO-DIIS                CNVDIIS         .... on
   Start iteration      DIISMaxIt       ....    12
   Startup error        DIISStart       ....  0.200000
   # of expansion vecs  DIISMaxEq       ....     5
   Bias factor          DIISBfac        ....   1.050
   Max. coefficient     DIISMaxC        ....  10.000
 MO-DIIS                CNVKDIIS        .... off
 Trust-Rad. Augm. Hess. CNVTRAH         .... auto
   Auto Start mean grad. ratio tolernc. ....  1.125000
   Auto Start start iteration           ....     1
   Auto Start num. interpolation iter.  ....    10
   Max. Number of Micro iterations      ....    24
   Max. Number of Macro iterations      .... Maxiter - #DIIS iter
   Number of Davidson start vectors     ....     2
   Converg. threshold    (grad. norm)   ....   1.000e-05
   Grad. Scal. Fac. for Micro threshold ....   0.100
   Minimum threshold for Micro iter.    ....   1.000e-02
   NR start threshold (gradient norm)   ....   1.000e-04
   Initial trust radius                 ....   0.400
   Minimum AH scaling param. (alpha)    ....   1.000
   Maximum AH scaling param. (alpha)    .... 1000.000
   Quad. conv. algorithm                .... NR
   White noise on init. David. guess    .... on
   Maximum white noise                  ....   0.010
   Pseudo random numbers                .... off
   Inactive MOs                         .... canonical
   Orbital update algorithm             .... Taylor
   Preconditioner                       .... Diag
   Full preconditioner red. dimension   ....   250
 SOSCF                 CNVSOSCF           .... on
   Start iteration     SOSCFMaxIt         ....   150
   Startup grad/error  SOSCFStart         ....  0.003300
   Hessian update      SOSCFHessUp        .... L-BFGS
   Autom. constraints  SOSCFAutoConstrain .... off
 Level Shifting         CNVShift        .... on
   Level shift para.    LevelShift      ....    0.2500
   Turn off err/grad.   ShiftErr        ....    0.0010
 Zerner damping         CNVZerner       .... off
 Static damping         CNVDamp         .... on
   Fraction old density DampFac         ....    0.7000
   Max. Damping (<1)    DampMax         ....    0.9800
   Min. Damping (>=0)   DampMin         ....    0.0000
   Turn off err/grad.   DampErr         ....    0.1000

SCF Procedure:
 Maximum # iterations   MaxIter         ....   125
 SCF integral mode      SCFMode         .... Direct
   Integral package                     .... SHARK and LIBINT hybrid scheme
 Reset frequency        DirectResetFreq ....    20
 Integral Threshold     Thresh          ....  2.500e-11 Eh
 Primitive CutOff       TCut            ....  2.500e-12 Eh

Convergence Tolerance:
 Convergence Check Mode ConvCheckMode   .... Total+1el-Energy
 Convergence forced     ConvForced      .... 0
 Energy Change          TolE            ....  1.000e-08 Eh
 1-El. energy change                    ....  1.000e-05 Eh
 Orbital Gradient       TolG            ....  1.000e-05
 Orbital Rotation angle TolX            ....  1.000e-05
 DIIS Error             TolErr          ....  5.000e-07

---------------------
INITIAL GUESS: MOREAD
---------------------
Guess MOs are being read from file: /home/friday_code/Desktop/DP-Regenrate-Results/calculations/GlcNAc/GlcNAc-2/GlcNAc_InterFrag.ges
Input Geometry matches current geometry (good)
Input basis set matches current basis set (good)
Occupation numbers will be reassigned to an Aufbau configuration
MOs were renormalized
MOs were reorthogonalized (Cholesky)
                      ------------------
                      INITIAL GUESS DONE (   0.0 sec)
                      ------------------
             **** ENERGY FILE WAS UPDATED (/home/friday_code/Desktop/DP-Regenrate-Results/calculations/GlcNAc/GlcNAc-2/GlcNAc_InterFrag.en.tmp) ****
Finished Guess after   0.3 sec
Maximum memory used throughout the entire GUESS-calculation: 19.1 MB


           ************************************************************
           *        Program running with 2 parallel MPI-processes     *
           *              working on a common directory               *
           ************************************************************

-------------------------------------------------------------------------------------------
                                      ORCA LEAN-SCF
                              memory conserving SCF solver
-------------------------------------------------------------------------------------------

----------------------------------------D-I-I-S--------------------------------------------
Iteration    Energy (Eh)           Delta-E    RMSDP     MaxDP     DIISErr   Damp  Time(sec)
-------------------------------------------------------------------------------------------
               ***  Starting incremental Fock matrix formation  ***
    1    -819.5121262608763573     0.00e+00  7.46e-04  1.29e-02  2.43e-02  0.700   4.7
    2    -819.5166072317169892    -4.48e-03  6.51e-04  1.21e-02  1.73e-02  0.700   2.2
                               ***Turning on AO-DIIS***
    3    -819.5192244400254822    -2.62e-03  3.94e-04  9.03e-03  1.09e-02  0.700   2.1
    4    -819.5208792117109624    -1.65e-03  8.54e-04  2.05e-02  6.75e-03  0.000   2.1
                              *** Initializing SOSCF ***
---------------------------------------S-O-S-C-F--------------------------------------
Iteration    Energy (Eh)           Delta-E    RMSDP     MaxDP     MaxGrad    Time(sec)
--------------------------------------------------------------------------------------
    5    -819.5245328248386159    -3.65e-03  4.87e-05  1.21e-03  1.63e-03     2.2
               *** Restarting incremental Fock matrix formation ***
    6    -819.5245503397793527    -1.75e-05  3.69e-05  6.35e-04  1.08e-04     4.8
    7    -819.5245493702848307     9.69e-07  1.71e-05  5.21e-04  3.04e-04     3.0
    8    -819.5245516167983624    -2.25e-06  6.59e-06  2.23e-04  4.72e-05     2.7
    9    -819.5245515043882278     1.12e-07  4.26e-06  1.52e-04  7.96e-05     2.4
   10    -819.5245516711008804    -1.67e-07  9.29e-07  2.05e-05  3.41e-06     2.2
   11    -819.5245516641359700     6.96e-09  4.84e-07  1.12e-05  3.56e-06     1.9
                 **** Energy Check signals convergence ****

               *****************************************************
               *                     SUCCESS                       *
               *           SCF CONVERGED AFTER  11 CYCLES          *
               *****************************************************

Recomputing exchange energy using gridx3       ... done (    7.921 sec)
Old exchange energy                            :    -20.597801667 Eh
New exchange energy                            :    -20.597822487 Eh
Exchange energy change after final integration :     -0.000020820 Eh
Total energy after final integration           :   -819.524572490 Eh
             **** ENERGY FILE WAS UPDATED (/home/friday_code/Desktop/DP-Regenrate-Results/calculations/GlcNAc/GlcNAc-2/GlcNAc_InterFrag.en.tmp) ****

----------------
TOTAL SCF ENERGY
----------------

Total Energy       :       -819.52457249021006 Eh          -22300.39735 eV

Components:
Nuclear Repulsion  :       1132.33799046838135 Eh           30812.48320 eV
Electronic Energy  :      -1951.86254213821303 Eh          -53112.87998 eV
One Electron Energy:      -3371.45932702863865 Eh          -91742.07237 eV
Two Electron Energy:       1419.59678489042562 Eh           38629.19239 eV

Virial components:
Potential Energy   :      -1634.17081232725059 Eh          -44468.04852 eV
Kinetic Energy     :        814.64623983704053 Eh           22167.65117 eV
Virial Ratio       :          2.00598828352064

DFT components:
N(Alpha)           :       58.999911592618 electrons
N(Beta)            :       58.999911592618 electrons
N(Total)           :      117.999823185236 electrons
E(X)               :      -81.870228688843 Eh       
E(C)               :       -4.817592107890 Eh       
E(XC)              :      -86.687820796733 Eh       

---------------
SCF CONVERGENCE
---------------

  Last Energy change         ...   -6.9649e-09  Tolerance :   1.0000e-08
  Last MAX-Density change    ...    1.1233e-05  Tolerance :   1.0000e-07
  Last RMS-Density change    ...    4.8358e-07  Tolerance :   5.0000e-09
  Last DIIS Error            ...    1.6291e-03  Tolerance :   5.0000e-07
  Last Orbital Gradient      ...    3.5600e-06  Tolerance :   1.0000e-05
  Last Orbital Rotation      ...    3.5023e-06  Tolerance :   1.0000e-05


----------------
ORBITAL ENERGIES
----------------

  NO   OCC          E(Eh)            E(eV) 
   0   2.0000     -19.165284      -521.5139 
   1   2.0000     -19.165054      -521.5076 
   2   2.0000     -19.151485      -521.1384 
   3   2.0000     -19.139791      -520.8202 
   4   2.0000     -19.138099      -520.7741 
   5   2.0000     -19.095717      -519.6209 
   6   2.0000     -14.357713      -390.6932 
   7   2.0000     -10.299592      -280.2661 
   8   2.0000     -10.278259      -279.6856 
   9   2.0000     -10.240702      -278.6637 
  10   2.0000     -10.240246      -278.6513 
  11   2.0000     -10.238683      -278.6087 
  12   2.0000     -10.233610      -278.4707 
  13   2.0000     -10.226144      -278.2675 
  14   2.0000     -10.183047      -277.0948 
  15   2.0000      -1.082899       -29.4672 
  16   2.0000      -1.035773       -28.1848 
  17   2.0000      -1.025587       -27.9076 
  18   2.0000      -1.017392       -27.6846 
  19   2.0000      -1.008712       -27.4484 
  20   2.0000      -1.007632       -27.4191 
  21   2.0000      -0.922101       -25.0916 
  22   2.0000      -0.791127       -21.5277 
  23   2.0000      -0.779696       -21.2166 
  24   2.0000      -0.732207       -19.9244 
  25   2.0000      -0.695896       -18.9363 
  26   2.0000      -0.643810       -17.5190 
  27   2.0000      -0.627217       -17.0674 
  28   2.0000      -0.606709       -16.5094 
  29   2.0000      -0.582891       -15.8613 
  30   2.0000      -0.552665       -15.0388 
  31   2.0000      -0.539597       -14.6832 
  32   2.0000      -0.523939       -14.2571 
  33   2.0000      -0.511587       -13.9210 
  34   2.0000      -0.495242       -13.4762 
  35   2.0000      -0.479389       -13.0448 
  36   2.0000      -0.471399       -12.8274 
  37   2.0000      -0.466650       -12.6982 
  38   2.0000      -0.444739       -12.1020 
  39   2.0000      -0.432247       -11.7620 
  40   2.0000      -0.427090       -11.6217 
  41   2.0000      -0.423136       -11.5141 
  42   2.0000      -0.410212       -11.1624 
  43   2.0000      -0.399811       -10.8794 
  44   2.0000      -0.391508       -10.6535 
  45   2.0000      -0.380084       -10.3426 
  46   2.0000      -0.372310       -10.1311 
  47   2.0000      -0.356486        -9.7005 
  48   2.0000      -0.350201        -9.5294 
  49   2.0000      -0.346054        -9.4166 
  50   2.0000      -0.340234        -9.2582 
  51   2.0000      -0.325718        -8.8633 
  52   2.0000      -0.309652        -8.4261 
  53   2.0000      -0.297828        -8.1043 
  54   2.0000      -0.280089        -7.6216 
  55   2.0000      -0.274211        -7.4617 
  56   2.0000      -0.258805        -7.0424 
  57   2.0000      -0.245404        -6.6778 
  58   2.0000      -0.237990        -6.4760 
  59   0.0000       0.031570         0.8591 
  60   0.0000       0.048669         1.3243 
  61   0.0000       0.063277         1.7218 
  62   0.0000       0.071303         1.9403 
  63   0.0000       0.081095         2.2067 
  64   0.0000       0.091992         2.5032 
  65   0.0000       0.105833         2.8799 
  66   0.0000       0.116981         3.1832 
  67   0.0000       0.128435         3.4949 
  68   0.0000       0.137108         3.7309 
  69   0.0000       0.144700         3.9375 
  70   0.0000       0.146532         3.9873 
  71   0.0000       0.158023         4.3000 
  72   0.0000       0.164117         4.4658 
  73   0.0000       0.175450         4.7742 
  74   0.0000       0.183492         4.9931 
  75   0.0000       0.187271         5.0959 
  76   0.0000       0.195545         5.3210 
  77   0.0000       0.212440         5.7808 
  78   0.0000       0.217026         5.9056 
  79   0.0000       0.228533         6.2187 
  80   0.0000       0.232924         6.3382 
  81   0.0000       0.242656         6.6030 
  82   0.0000       0.258740         7.0407 
  83   0.0000       0.268057         7.2942 
  84   0.0000       0.283486         7.7140 
  85   0.0000       0.299945         8.1619 
  86   0.0000       0.310174         8.4403 
  87   0.0000       0.334552         9.1036 
  88   0.0000       0.349876         9.5206 
  89   0.0000       0.420797        11.4505 
  90   0.0000       0.503135        13.6910 
  91   0.0000       0.523847        14.2546 
  92   0.0000       0.527502        14.3541 
  93   0.0000       0.537349        14.6220 
  94   0.0000       0.550865        14.9898 
  95   0.0000       0.559785        15.2325 
  96   0.0000       0.567856        15.4522 
  97   0.0000       0.571968        15.5640 
  98   0.0000       0.584016        15.8919 
  99   0.0000       0.590564        16.0701 
 100   0.0000       0.608746        16.5648 
 101   0.0000       0.615842        16.7579 
 102   0.0000       0.629381        17.1263 
 103   0.0000       0.638129        17.3644 
 104   0.0000       0.647618        17.6226 
 105   0.0000       0.669384        18.2149 
 106   0.0000       0.681653        18.5487 
 107   0.0000       0.692702        18.8494 
 108   0.0000       0.698042        18.9947 
 109   0.0000       0.719205        19.5706 
 110   0.0000       0.742947        20.2166 
 111   0.0000       0.756238        20.5783 
 112   0.0000       0.756979        20.5984 
 113   0.0000       0.767900        20.8956 
 114   0.0000       0.777993        21.1703 
 115   0.0000       0.788084        21.4448 
 116   0.0000       0.797536        21.7021 
 117   0.0000       0.814939        22.1756 
 118   0.0000       0.821327        22.3494 
 119   0.0000       0.824962        22.4484 
 120   0.0000       0.835187        22.7266 
 121   0.0000       0.847241        23.0546 
 122   0.0000       0.854659        23.2564 
 123   0.0000       0.865357        23.5476 
 124   0.0000       0.870349        23.6834 
 125   0.0000       0.876366        23.8471 
 126   0.0000       0.885520        24.0962 
 127   0.0000       0.902224        24.5508 
 128   0.0000       0.919661        25.0252 
 129   0.0000       0.923222        25.1222 
 130   0.0000       0.926124        25.2011 
 131   0.0000       0.951431        25.8897 
 132   0.0000       0.955980        26.0135 
 133   0.0000       0.970480        26.4081 
 134   0.0000       0.978415        26.6240 
 135   0.0000       1.010438        27.4954 
 136   0.0000       1.019336        27.7375 
 137   0.0000       1.024428        27.8761 
 138   0.0000       1.041954        28.3530 
 139   0.0000       1.072142        29.1745 
 140   0.0000       1.080192        29.3935 
 141   0.0000       1.092684        29.7334 
 142   0.0000       1.098028        29.8789 
 143   0.0000       1.126559        30.6552 
 144   0.0000       1.158627        31.5278 
 145   0.0000       1.175888        31.9975 
 146   0.0000       1.192097        32.4386 
 147   0.0000       1.204477        32.7755 
 148   0.0000       1.222534        33.2669 
 149   0.0000       1.244099        33.8536 
 150   0.0000       1.255218        34.1562 
 151   0.0000       1.266829        34.4722 
 152   0.0000       1.288910        35.0730 
 153   0.0000       1.305861        35.5343 
 154   0.0000       1.317301        35.8456 
 155   0.0000       1.350611        36.7520 
 156   0.0000       1.369235        37.2588 
 157   0.0000       1.395533        37.9744 
 158   0.0000       1.410602        38.3844 
 159   0.0000       1.430178        38.9171 
 160   0.0000       1.464250        39.8443 
 161   0.0000       1.489089        40.5202 
 162   0.0000       1.502735        40.8915 
 163   0.0000       1.506400        40.9912 
 164   0.0000       1.547023        42.0966 
 165   0.0000       1.556919        42.3659 
 166   0.0000       1.563244        42.5380 
 167   0.0000       1.589811        43.2610 
 168   0.0000       1.598150        43.4879 
 169   0.0000       1.605847        43.6973 
 170   0.0000       1.614962        43.9453 
 171   0.0000       1.622583        44.1527 
 172   0.0000       1.646931        44.8153 
 173   0.0000       1.668898        45.4130 
 174   0.0000       1.698697        46.2239 
 175   0.0000       1.715243        46.6741 
 176   0.0000       1.746832        47.5337 
 177   0.0000       1.761430        47.9309 
 178   0.0000       1.780227        48.4424 
 179   0.0000       1.789716        48.7006 
 180   0.0000       1.799108        48.9562 
 181   0.0000       1.807756        49.1915 
 182   0.0000       1.821654        49.5697 
 183   0.0000       1.835132        49.9365 
 184   0.0000       1.846110        50.2352 
 185   0.0000       1.853486        50.4359 
 186   0.0000       1.871908        50.9372 
 187   0.0000       1.885452        51.3058 
 188   0.0000       1.904196        51.8158 
 189   0.0000       1.904961        51.8366 
 190   0.0000       1.915414        52.1211 
 191   0.0000       1.934427        52.6384 
 192   0.0000       1.960635        53.3516 
 193   0.0000       1.967748        53.5452 
 194   0.0000       1.978555        53.8392 
 195   0.0000       1.987277        54.0766 
 196   0.0000       1.997106        54.3440 
 197   0.0000       2.009278        54.6752 
 198   0.0000       2.013356        54.7862 
 199   0.0000       2.022942        55.0470 
 200   0.0000       2.031590        55.2824 
 201   0.0000       2.041450        55.5507 
 202   0.0000       2.064151        56.1684 
 203   0.0000       2.075321        56.4724 
 204   0.0000       2.089625        56.8616 
 205   0.0000       2.095545        57.0227 
 206   0.0000       2.106018        57.3077 
 207   0.0000       2.113408        57.5087 
 208   0.0000       2.123769        57.7907 
 209   0.0000       2.150135        58.5081 
 210   0.0000       2.183494        59.4159 
 211   0.0000       2.195934        59.7544 
 212   0.0000       2.207619        60.0724 
 213   0.0000       2.230468        60.6941 
 214   0.0000       2.242937        61.0334 
 215   0.0000       2.258745        61.4636 
 216   0.0000       2.291670        62.3595 
 217   0.0000       2.296296        62.4854 
 218   0.0000       2.327515        63.3349 
 219   0.0000       2.338254        63.6271 
 220   0.0000       2.348041        63.8934 
 221   0.0000       2.373045        64.5739 
 222   0.0000       2.384593        64.8881 
 223   0.0000       2.403117        65.3921 
 224   0.0000       2.420634        65.8688 
 225   0.0000       2.425500        66.0012 
 226   0.0000       2.447367        66.5962 
 227   0.0000       2.461091        66.9697 
 228   0.0000       2.467664        67.1486 
 229   0.0000       2.480534        67.4988 
 230   0.0000       2.485182        67.6252 
 231   0.0000       2.508574        68.2618 
 232   0.0000       2.567138        69.8554 
 233   0.0000       2.595540        70.6282 
 234   0.0000       2.605376        70.8959 
 235   0.0000       2.616159        71.1893 
 236   0.0000       2.636402        71.7401 
 237   0.0000       2.646085        72.0036 
 238   0.0000       2.654815        72.2412 
 239   0.0000       2.658553        72.3429 
 240   0.0000       2.670037        72.6554 
 241   0.0000       2.679170        72.9039 
 242   0.0000       2.684404        73.0463 
 243   0.0000       2.700113        73.4738 
 244   0.0000       2.714369        73.8617 
 245   0.0000       2.746203        74.7280 
 246   0.0000       2.750750        74.8517 
 247   0.0000       2.768437        75.3330 
 248   0.0000       2.781632        75.6921 
 249   0.0000       2.783774        75.7503 
 250   0.0000       2.800063        76.1936 
 251   0.0000       2.817520        76.6686 
 252   0.0000       2.836775        77.1926 
 253   0.0000       2.849748        77.5456 
 254   0.0000       2.862113        77.8820 
 255   0.0000       2.867872        78.0388 
 256   0.0000       2.881431        78.4077 
 257   0.0000       2.903626        79.0117 
 258   0.0000       2.934538        79.8529 
 259   0.0000       2.939985        80.0010 
 260   0.0000       2.973090        80.9019 
 261   0.0000       2.979637        81.0800 
 262   0.0000       2.997139        81.5563 
 263   0.0000       3.014024        82.0158 
 264   0.0000       3.018330        82.1329 
 265   0.0000       3.039409        82.7065 
 266   0.0000       3.077167        83.7340 
 267   0.0000       3.110264        84.6346 
 268   0.0000       3.167228        86.1846 
 269   0.0000       3.169945        86.2586 
 270   0.0000       3.210135        87.3522 
 271   0.0000       3.244228        88.2799 
 272   0.0000       3.274845        89.1131 
 273   0.0000       3.300571        89.8131 
 274   0.0000       3.348434        91.1155 
 275   0.0000       3.423837        93.1673 
 276   0.0000       3.435496        93.4846 
 277   0.0000       3.454841        94.0110 
 278   0.0000       3.465695        94.3064 
 279   0.0000       3.481142        94.7267 
 280   0.0000       3.496342        95.1403 
 281   0.0000       3.514942        95.6464 
 282   0.0000       3.548869        96.5696 
 283   0.0000       3.560592        96.8886 
 284   0.0000       3.584112        97.5286 

                    ********************************
                    * MULLIKEN POPULATION ANALYSIS *
                    ********************************

-----------------------
MULLIKEN ATOMIC CHARGES
-----------------------
   0 O :   -0.519561
   1 O :   -0.531197
   2 O :   -0.532800
   3 O :   -0.515771
   4 O :   -0.544407
   5 O :   -0.497820
   6 N :   -0.477394
   7 C :    0.180538
   8 C :    0.010671
   9 C :    0.152338
  10 C :    0.131315
  11 C :    0.398111
  12 C :    0.062177
  13 C :    0.533649
  14 C :   -0.384608
  15 H :    0.091466
  16 H :    0.143529
  17 H :    0.076424
  18 H :    0.092774
  19 H :    0.057729
  20 H :    0.087992
  21 H :    0.098533
  22 H :    0.252017
  23 H :    0.310415
  24 H :    0.311651
  25 H :    0.314479
  26 H :    0.311730
  27 H :    0.146345
  28 H :    0.147934
  29 H :    0.091741
Sum of atomic charges:    0.0000000

--------------------------------
MULLIKEN REDUCED ORBITAL CHARGES
--------------------------------
  0 O s       :     3.885831  s :     3.885831
      pz      :     1.692143  p :     4.606544
      px      :     1.394118
      py      :     1.520282
      dz2     :     0.003889  d :     0.027186
      dxz     :     0.006314
      dyz     :     0.005410
      dx2y2   :     0.007283
      dxy     :     0.004291

  1 O s       :     3.846566  s :     3.846566
      pz      :     1.366449  p :     4.661425
      px      :     1.701145
      py      :     1.593831
      dz2     :     0.009084  d :     0.023207
      dxz     :     0.001421
      dyz     :     0.002780
      dx2y2   :     0.003912
      dxy     :     0.006010

  2 O s       :     3.853494  s :     3.853494
      pz      :     1.643165  p :     4.656314
      px      :     1.516886
      py      :     1.496262
      dz2     :     0.003033  d :     0.022992
      dxz     :     0.006489
      dyz     :     0.006044
      dx2y2   :     0.004828
      dxy     :     0.002598

  3 O s       :     3.849245  s :     3.849245
      pz      :     1.722851  p :     4.643215
      px      :     1.709607
      py      :     1.210756
      dz2     :     0.003212  d :     0.023311
      dxz     :     0.004552
      dyz     :     0.006274
      dx2y2   :     0.002354
      dxy     :     0.006919

  4 O s       :     3.842634  s :     3.842634
      pz      :     1.837378  p :     4.678981
      px      :     1.631691
      py      :     1.209912
      dz2     :     0.003187  d :     0.022793
      dxz     :     0.003858
      dyz     :     0.003413
      dx2y2   :     0.002590
      dxy     :     0.009744

  5 O s       :     3.872078  s :     3.872078
      pz      :     1.352176  p :     4.599970
      px      :     1.800135
      py      :     1.447659
      dz2     :     0.009787  d :     0.025772
      dxz     :     0.005505
      dyz     :     0.008586
      dx2y2   :     0.001148
      dxy     :     0.000746

  6 N s       :     3.522359  s :     3.522359
      pz      :     1.190683  p :     3.925083
      px      :     1.092844
      py      :     1.641556
      dz2     :     0.009442  d :     0.029953
      dxz     :     0.006700
      dyz     :     0.001906
      dx2y2   :     0.005921
      dxy     :     0.005984

  7 C s       :     3.146676  s :     3.146676
      pz      :     1.011219  p :     2.605041
      px      :     0.826016
      py      :     0.767806
      dz2     :     0.016761  d :     0.067745
      dxz     :     0.007395
      dyz     :     0.007854
      dx2y2   :     0.019533
      dxy     :     0.016202

  8 C s       :     3.178848  s :     3.178848
      pz      :     1.045852  p :     2.755258
      px      :     0.797499
      py      :     0.911906
      dz2     :     0.012953  d :     0.055223
      dxz     :     0.009410
      dyz     :     0.005032
      dx2y2   :     0.011180
      dxy     :     0.016648

  9 C s       :     3.135321  s :     3.135321
      pz      :     0.942313  p :     2.645656
      px      :     0.936761
      py      :     0.766582
      dz2     :     0.017059  d :     0.066684
      dxz     :     0.007339
      dyz     :     0.010996
      dx2y2   :     0.016080
      dxy     :     0.015211

 10 C s       :     3.153771  s :     3.153771
      pz      :     0.973007  p :     2.649612
      px      :     0.912330
      py      :     0.764275
      dz2     :     0.017002  d :     0.065302
      dxz     :     0.008161
      dyz     :     0.009896
      dx2y2   :     0.014836
      dxy     :     0.015408

 11 C s       :     3.039119  s :     3.039119
      pz      :     0.893519  p :     2.466223
      px      :     0.762128
      py      :     0.810576
      dz2     :     0.022995  d :     0.096547
      dxz     :     0.014412
      dyz     :     0.013992
      dx2y2   :     0.021394
      dxy     :     0.023754

 12 C s       :     3.152922  s :     3.152922
      pz      :     0.992652  p :     2.722476
      px      :     0.885601
      py      :     0.844223
      dz2     :     0.015692  d :     0.062425
      dxz     :     0.007707
      dyz     :     0.010017
      dx2y2   :     0.013083
      dxy     :     0.015927

 13 C s       :     2.981183  s :     2.981183
      pz      :     0.779318  p :     2.375766
      px      :     0.812537
      py      :     0.783911
      dz2     :     0.024251  d :     0.109402
      dxz     :     0.041666
      dyz     :     0.018493
      dx2y2   :     0.010364
      dxy     :     0.014629

 14 C s       :     3.252008  s :     3.252008
      pz      :     1.008235  p :     3.103339
      px      :     1.019596
      py      :     1.075508
      dz2     :     0.005654  d :     0.029261
      dxz     :     0.007038
      dyz     :     0.005519
      dx2y2   :     0.004775
      dxy     :     0.006274

 15 H s       :     0.897716  s :     0.897716
      pz      :     0.007134  p :     0.010818
      px      :     0.001969
      py      :     0.001715

 16 H s       :     0.844830  s :     0.844830
      pz      :     0.007460  p :     0.011641
      px      :     0.001957
      py      :     0.002223

 17 H s       :     0.912527  s :     0.912527
      pz      :     0.007121  p :     0.011048
      px      :     0.002185
      py      :     0.001742

 18 H s       :     0.896337  s :     0.896337
      pz      :     0.007172  p :     0.010889
      px      :     0.002104
      py      :     0.001613

 19 H s       :     0.931864  s :     0.931864
      pz      :     0.007123  p :     0.010407
      px      :     0.001675
      py      :     0.001609

 20 H s       :     0.901124  s :     0.901124
      pz      :     0.007081  p :     0.010883
      px      :     0.002142
      py      :     0.001660

 21 H s       :     0.890595  s :     0.890595
      pz      :     0.002880  p :     0.010872
      px      :     0.003226
      py      :     0.004765

 22 H s       :     0.723168  s :     0.723168
      pz      :     0.013018  p :     0.024815
      px      :     0.003549
      py      :     0.008248

 23 H s       :     0.650860  s :     0.650860
      pz      :     0.020662  p :     0.038725
      px      :     0.009882
      py      :     0.008181

 24 H s       :     0.649312  s :     0.649312
      pz      :     0.012463  p :     0.039037
      px      :     0.016803
      py      :     0.009771

 25 H s       :     0.646742  s :     0.646742
      pz      :     0.010901  p :     0.038779
      px      :     0.012359
      py      :     0.015519

 26 H s       :     0.649473  s :     0.649473
      pz      :     0.010792  p :     0.038797
      px      :     0.012846
      py      :     0.015159

 27 H s       :     0.842073  s :     0.842073
      pz      :     0.003591  p :     0.011582
      px      :     0.004185
      py      :     0.003806

 28 H s       :     0.840397  s :     0.840397
      pz      :     0.002408  p :     0.011669
      px      :     0.003217
      py      :     0.006043

 29 H s       :     0.896805  s :     0.896805
      pz      :     0.006011  p :     0.011454
      px      :     0.002200
      py      :     0.003243


------------------------
MULLIKEN OVERLAP CHARGES
------------------------
B(  0-O ,  3-O ) :  -0.1058 B(  0-O ,  8-C ) :  -0.0874 B(  0-O ,  9-C ) :  -0.0740 
B(  0-O , 10-C ) :   0.3816 B(  0-O , 11-C ) :   0.4712 B(  0-O , 12-C ) :  -0.0795 
B(  0-O , 18-H ) :  -0.0845 B(  0-O , 19-H ) :  -0.1152 B(  1-O ,  7-C ) :   0.5707 
B(  1-O ,  8-C ) :  -0.0770 B(  1-O ,  9-C ) :  -0.0772 B(  1-O , 15-H ) :  -0.0761 
B(  1-O , 23-H ) :   0.5884 B(  2-O ,  7-C ) :  -0.0840 B(  2-O ,  9-C ) :   0.4794 
B(  2-O , 10-C ) :  -0.0814 B(  2-O , 17-H ) :  -0.0727 B(  2-O , 24-H ) :   0.5813 
B(  3-O ,  8-C ) :  -0.0895 B(  3-O , 11-C ) :   0.5839 B(  3-O , 19-H ) :  -0.0929 
B(  3-O , 25-H ) :   0.5792 B(  4-O , 10-C ) :  -0.0694 B(  4-O , 12-C ) :   0.5589 
B(  4-O , 20-H ) :  -0.0777 B(  4-O , 21-H ) :  -0.0632 B(  4-O , 26-H ) :   0.5926 
B(  5-O ,  6-N ) :  -0.1852 B(  5-O , 13-C ) :   1.2221 B(  5-O , 14-C ) :  -0.1574 
B(  6-N ,  7-C ) :  -0.0917 B(  6-N ,  8-C ) :   0.4414 B(  6-N , 11-C ) :  -0.0560 
B(  6-N , 13-C ) :   0.5694 B(  6-N , 14-C ) :  -0.2049 B(  6-N , 16-H ) :  -0.0850 
B(  6-N , 22-H ) :   0.6631 B(  7-C ,  8-C ) :   0.6209 B(  7-C ,  9-C ) :   0.6262 
B(  7-C , 10-C ) :  -0.0590 B(  7-C , 11-C ) :  -0.0563 B(  7-C , 15-H ) :   0.7267 
B(  7-C , 16-H ) :  -0.0692 B(  7-C , 17-H ) :  -0.0894 B(  7-C , 23-H ) :  -0.0834 
B(  8-C ,  9-C ) :  -0.0922 B(  8-C , 11-C ) :   0.5306 B(  8-C , 15-H ) :  -0.0925 
B(  8-C , 16-H ) :   0.7119 B(  8-C , 19-H ) :  -0.1463 B(  8-C , 22-H ) :  -0.0695 
B(  9-C , 10-C ) :   0.4601 B(  9-C , 15-H ) :  -0.0921 B(  9-C , 17-H ) :   0.7205 
B(  9-C , 18-H ) :  -0.1019 B(  9-C , 24-H ) :  -0.0535 B( 10-C , 12-C ) :   0.6856 
B( 10-C , 17-H ) :  -0.1108 B( 10-C , 18-H ) :   0.7111 B( 10-C , 20-H ) :  -0.0916 
B( 10-C , 21-H ) :  -0.0672 B( 11-C , 19-H ) :   0.7407 B( 11-C , 25-H ) :  -0.0535 
B( 12-C , 18-H ) :  -0.0827 B( 12-C , 20-H ) :   0.7184 B( 12-C , 21-H ) :   0.7264 
B( 12-C , 26-H ) :  -0.0916 B( 13-C , 14-C ) :   0.7074 B( 13-C , 29-H ) :  -0.0505 
B( 14-C , 27-H ) :   0.7447 B( 14-C , 28-H ) :   0.7501 B( 14-C , 29-H ) :   0.6879 
B( 20-H , 21-H ) :  -0.0919 B( 27-H , 29-H ) :  -0.0531 B( 28-H , 29-H ) :  -0.0539 



                     *******************************
                     * LOEWDIN POPULATION ANALYSIS *
                     *******************************

----------------------
LOEWDIN ATOMIC CHARGES
----------------------
   0 O :   -0.234493
   1 O :   -0.236771
   2 O :   -0.244129
   3 O :   -0.216726
   4 O :   -0.262764
   5 O :   -0.305704
   6 N :   -0.081579
   7 C :    0.034240
   8 C :   -0.034423
   9 C :    0.019519
  10 C :    0.016891
  11 C :    0.125136
  12 C :   -0.000467
  13 C :    0.122909
  14 C :   -0.216317
  15 H :    0.068156
  16 H :    0.094596
  17 H :    0.054090
  18 H :    0.059847
  19 H :    0.034465
  20 H :    0.054785
  21 H :    0.069256
  22 H :    0.141465
  23 H :    0.168414
  24 H :    0.167864
  25 H :    0.175013
  26 H :    0.164229
  27 H :    0.097431
  28 H :    0.098323
  29 H :    0.066748

-------------------------------
LOEWDIN REDUCED ORBITAL CHARGES
-------------------------------
  0 O s       :     3.502609  s :     3.502609
      pz      :     1.722968  p :     4.670316
      px      :     1.409891
      py      :     1.537458
      dz2     :     0.007804  d :     0.061568
      dxz     :     0.013186
      dyz     :     0.010132
      dx2y2   :     0.017539
      dxy     :     0.012907

  1 O s       :     3.499346  s :     3.499346
      pz      :     1.394681  p :     4.692341
      px      :     1.690981
      py      :     1.606679
      dz2     :     0.018055  d :     0.045084
      dxz     :     0.003197
      dyz     :     0.005074
      dx2y2   :     0.007207
      dxy     :     0.011551

  2 O s       :     3.501425  s :     3.501425
      pz      :     1.669247  p :     4.697527
      px      :     1.521116
      py      :     1.507163
      dz2     :     0.004756  d :     0.045178
      dxz     :     0.011283
      dyz     :     0.011149
      dx2y2   :     0.010368
      dxy     :     0.007621

  3 O s       :     3.492735  s :     3.492735
      pz      :     1.734289  p :     4.677780
      px      :     1.701760
      py      :     1.241731
      dz2     :     0.005347  d :     0.046212
      dxz     :     0.005639
      dyz     :     0.013483
      dx2y2   :     0.007179
      dxy     :     0.014565

  4 O s       :     3.503753  s :     3.503753
      pz      :     1.830323  p :     4.714536
      px      :     1.635861
      py      :     1.248353
      dz2     :     0.005423  d :     0.044475
      dxz     :     0.004541
      dyz     :     0.007460
      dx2y2   :     0.006714
      dxy     :     0.020337

  5 O s       :     3.573151  s :     3.573151
      pz      :     1.438866  p :     4.680754
      px      :     1.786404
      py      :     1.455485
      dz2     :     0.022454  d :     0.051799
      dxz     :     0.010610
      dyz     :     0.015548
      dx2y2   :     0.001788
      dxy     :     0.001398

  6 N s       :     3.086457  s :     3.086457
      pz      :     1.197341  p :     3.916568
      px      :     1.152916
      py      :     1.566311
      dz2     :     0.022443  d :     0.078554
      dxz     :     0.021527
      dyz     :     0.004490
      dx2y2   :     0.016271
      dxy     :     0.013822

  7 C s       :     2.877763  s :     2.877763
      pz      :     1.056601  p :     2.934495
      px      :     0.959840
      py      :     0.918053
      dz2     :     0.035965  d :     0.153502
      dxz     :     0.016436
      dyz     :     0.016951
      dx2y2   :     0.046747
      dxy     :     0.037403

  8 C s       :     2.879565  s :     2.879565
      pz      :     1.078185  p :     3.029464
      px      :     0.924882
      py      :     1.026397
      dz2     :     0.027652  d :     0.125394
      dxz     :     0.021080
      dyz     :     0.010677
      dx2y2   :     0.026036
      dxy     :     0.039949

  9 C s       :     2.884382  s :     2.884382
      pz      :     1.033016  p :     2.943306
      px      :     1.012921
      py      :     0.897369
      dz2     :     0.036894  d :     0.152793
      dxz     :     0.016343
      dyz     :     0.024790
      dx2y2   :     0.038806
      dxy     :     0.035959

 10 C s       :     2.892105  s :     2.892105
      pz      :     1.045943  p :     2.941015
      px      :     1.001356
      py      :     0.893716
      dz2     :     0.036910  d :     0.149989
      dxz     :     0.018352
      dyz     :     0.022364
      dx2y2   :     0.035948
      dxy     :     0.036416

 11 C s       :     2.862538  s :     2.862538
      pz      :     1.003318  p :     2.794002
      px      :     0.878070
      py      :     0.912614
      dz2     :     0.051500  d :     0.218324
      dxz     :     0.032291
      dyz     :     0.030856
      dx2y2   :     0.046928
      dxy     :     0.056749

 12 C s       :     2.890048  s :     2.890048
      pz      :     1.061867  p :     2.974565
      px      :     0.987929
      py      :     0.924769
      dz2     :     0.032652  d :     0.135854
      dxz     :     0.017413
      dyz     :     0.021622
      dx2y2   :     0.029968
      dxy     :     0.034198

 13 C s       :     2.843831  s :     2.843831
      pz      :     0.979142  p :     2.774542
      px      :     0.974824
      py      :     0.820575
      dz2     :     0.056812  d :     0.258718
      dxz     :     0.104725
      dyz     :     0.041529
      dx2y2   :     0.023327
      dxy     :     0.032325

 14 C s       :     2.921106  s :     2.921106
      pz      :     1.067074  p :     3.234946
      px      :     1.065286
      py      :     1.102586
      dz2     :     0.011251  d :     0.060265
      dxz     :     0.015826
      dyz     :     0.010632
      dx2y2   :     0.010128
      dxy     :     0.012428

 15 H s       :     0.893989  s :     0.893989
      pz      :     0.026853  p :     0.037855
      px      :     0.005666
      py      :     0.005336

 16 H s       :     0.862798  s :     0.862798
      pz      :     0.029101  p :     0.042606
      px      :     0.006424
      py      :     0.007081

 17 H s       :     0.906590  s :     0.906590
      pz      :     0.026569  p :     0.039320
      px      :     0.007194
      py      :     0.005556

 18 H s       :     0.900544  s :     0.900544
      pz      :     0.027467  p :     0.039609
      px      :     0.006842
      py      :     0.005299

 19 H s       :     0.926706  s :     0.926706
      pz      :     0.027529  p :     0.038829
      px      :     0.005323
      py      :     0.005977

 20 H s       :     0.906763  s :     0.906763
      pz      :     0.026773  p :     0.038452
      px      :     0.005971
      py      :     0.005708

 21 H s       :     0.892720  s :     0.892720
      pz      :     0.009097  p :     0.038025
      px      :     0.011113
      py      :     0.017815

 22 H s       :     0.777035  s :     0.777035
      pz      :     0.045762  p :     0.081500
      px      :     0.010588
      py      :     0.025150

 23 H s       :     0.714091  s :     0.714091
      pz      :     0.065936  p :     0.117495
      px      :     0.027758
      py      :     0.023801

 24 H s       :     0.713988  s :     0.713988
      pz      :     0.039880  p :     0.118149
      px      :     0.050454
      py      :     0.027814

 25 H s       :     0.708312  s :     0.708312
      pz      :     0.033302  p :     0.116676
      px      :     0.038002
      py      :     0.045371

 26 H s       :     0.717478  s :     0.717478
      pz      :     0.032425  p :     0.118293
      px      :     0.040032
      py      :     0.045836

 27 H s       :     0.862954  s :     0.862954
      pz      :     0.011867  p :     0.039615
      px      :     0.014995
      py      :     0.012753

 28 H s       :     0.862082  s :     0.862082
      pz      :     0.006723  p :     0.039595
      px      :     0.010777
      py      :     0.022096

 29 H s       :     0.893822  s :     0.893822
      pz      :     0.021807  p :     0.039430
      px      :     0.007118
      py      :     0.010505


---------------------------------
LOEWDIN BOND ORDERS (THRESH 0.050000)
---------------------------------
B(  0-O ,  3-O ) :   0.0777 B(  0-O ,  8-C ) :   0.0636 B(  0-O ,  9-C ) :   0.0624 
B(  0-O , 10-C ) :   1.1102 B(  0-O , 11-C ) :   1.1348 B(  0-O , 12-C ) :   0.0527 
B(  1-O ,  7-C ) :   1.1994 B(  1-O ,  8-C ) :   0.0655 B(  1-O ,  9-C ) :   0.0687 
B(  1-O , 23-H ) :   1.0239 B(  2-O ,  7-C ) :   0.0564 B(  2-O ,  9-C ) :   1.1757 
B(  2-O , 10-C ) :   0.0737 B(  2-O , 24-H ) :   1.0306 B(  3-O ,  8-C ) :   0.0555 
B(  3-O , 11-C ) :   1.2480 B(  3-O , 25-H ) :   1.0198 B(  4-O , 10-C ) :   0.0723 
B(  4-O , 12-C ) :   1.2025 B(  4-O , 26-H ) :   1.0257 B(  5-O ,  6-N ) :   0.2100 
B(  5-O , 13-C ) :   2.0736 B(  5-O , 14-C ) :   0.0913 B(  6-N ,  7-C ) :   0.0562 
B(  6-N ,  8-C ) :   1.0667 B(  6-N , 11-C ) :   0.0532 B(  6-N , 13-C ) :   1.3752 
[...]
 22 H      0.7480     1.0000     0.2520     0.9303     0.9303     0.0000
 23 H      0.6896     1.0000     0.3104     0.9104     0.9104    -0.0000
 24 H      0.6883     1.0000     0.3117     0.9002     0.9002     0.0000
 25 H      0.6855     1.0000     0.3145     0.9001     0.9001    -0.0000
 26 H      0.6883     1.0000     0.3117     0.9105     0.9105    -0.0000
 27 H      0.8537     1.0000     0.1463     0.9546     0.9546     0.0000
 28 H      0.8521     1.0000     0.1479     0.9514     0.9514     0.0000
 29 H      0.9083     1.0000     0.0917     0.9571     0.9571    -0.0000

  Mayer bond orders larger than 0.100000
B(  0-O , 10-C ) :   0.8701 B(  0-O , 11-C ) :   0.8988 B(  1-O ,  7-C ) :   0.9655 
B(  1-O , 23-H ) :   0.8692 B(  2-O ,  9-C ) :   0.9426 B(  2-O , 24-H ) :   0.8766 
B(  3-O , 11-C ) :   1.0208 B(  3-O , 25-H ) :   0.8756 B(  4-O , 12-C ) :   0.9702 
B(  4-O , 26-H ) :   0.8674 B(  5-O , 13-C ) :   1.8255 B(  6-N ,  8-C ) :   0.9168 
B(  6-N , 13-C ) :   1.1364 B(  6-N , 22-H ) :   0.8865 B(  7-C ,  8-C ) :   0.9487 
B(  7-C ,  9-C ) :   0.9556 B(  7-C , 15-H ) :   0.9291 B(  8-C , 11-C ) :   0.9334 
B(  8-C , 16-H ) :   0.9092 B(  9-C , 10-C ) :   0.9082 B(  9-C , 17-H ) :   0.9274 
B( 10-C , 12-C ) :   0.9789 B( 10-C , 18-H ) :   0.9211 B( 11-C , 19-H ) :   0.9226 
B( 12-C , 20-H ) :   0.9329 B( 12-C , 21-H ) :   0.9411 B( 13-C , 14-C ) :   0.9731 
B( 14-C , 27-H ) :   0.9513 B( 14-C , 28-H ) :   0.9494 B( 14-C , 29-H ) :   0.9528 


-------
TIMINGS
-------

Total SCF time: 0 days 0 hours 0 min 40 sec 

Total time                  ....      40.367 sec
Sum of individual times     ....      38.777 sec  ( 96.1%)

SCF preparation             ....       0.312 sec  (  0.8%)
Fock matrix formation       ....      38.127 sec  ( 94.5%)
  Startup                   ....       0.003 sec  (  0.0% of F)
  Split-RI-J                ....       3.967 sec  ( 10.4% of F)
  Chain of spheres X        ....      30.688 sec  ( 80.5% of F)
  XC integration            ....       4.977 sec  ( 13.1% of F)
    XC Preparation          ....       0.000 sec  (  0.0% of XC)
    Basis function eval.    ....       1.823 sec  ( 36.6% of XC)
    Density eval.           ....       1.198 sec  ( 24.1% of XC)
    XC-Functional eval.     ....       0.242 sec  (  4.9% of XC)
    XC-Potential eval.      ....       1.471 sec  ( 29.6% of XC)
Diagonalization             ....       0.000 sec  (  0.0%)
Density matrix formation    ....       0.021 sec  (  0.1%)
Total Energy calculation    ....       0.009 sec  (  0.0%)
Population analysis         ....       0.109 sec  (  0.3%)
Orbital Transformation      ....       0.025 sec  (  0.1%)
Orbital Orthonormalization  ....       0.000 sec  (  0.0%)
DIIS solution               ....       0.098 sec  (  0.2%)
  MO trafo                  ....       0.002 sec  (  1.6 % of DIIS)
  Orb grad                  ....       0.000 sec  (  0.0 % of DIIS)
  Energy W gradient         ....       0.000 sec  (  0.0 % of DIIS)
  DIIS error                ....       0.020 sec  ( 19.9 % of DIIS)
  DIIS work                 ....       0.062 sec  ( 63.7 % of DIIS)
  Form Q                    ....       0.000 sec  (  0.0 % of DIIS)
  Form QpQm                 ....       0.000 sec  (  0.0 % of DIIS)
  Exp/Cayley                ....       0.000 sec  (  0.0 % of DIIS)
  Orb update                ....       0.000 sec  (  0.0 % of DIIS)
  Wake-sleep                ....       0.002 sec  (  2.1 % of DIIS)
SOSCF solution              ....       0.077 sec  (  0.2%)
  MO trafo                  ....       0.029 sec  ( 37.8 % of SOSCF)
  Orb grad                  ....       0.002 sec  (  2.4 % of SOSCF)
  Rot update                ....       0.006 sec  (  7.4 % of SOSCF)
  Step                      ....       0.038 sec  ( 48.8 % of SOSCF)
Finished LeanSCF after  40.4 sec

Maximum memory used throughout the entire LEANSCF-calculation: 35.5 MB


-------------------------------------------------------------------------------
                          DFT DISPERSION CORRECTION                            
                                                                               
                              DFTD3 V3.1  Rev 1                                
                          USING Becke-Johnson damping                          
-------------------------------------------------------------------------------
The B3LYP functional is recognized
Active option DFTDOPT                   ...         4   

molecular C6(AA) [au] = 7139.289555 


            DFT-D V3
 parameters
 s6 scaling factor         :     1.0000 
 a1 scaling factor         :     0.3981 
 s8 scaling factor         :     1.9889 
 a2 scaling factor         :     4.4211 
 ad hoc parameters k1-k3   :    16.0000     1.3333    -4.0000 

 Edisp/kcal,au: -32.543449495115  -0.051861282369 
 E6   /kcal   : -16.008672008 
 E8   /kcal   : -16.534777487 
 % E8         :  50.808312405 

-------------------------   ----------------
Dispersion correction           -0.051861282
-------------------------   ----------------


-------------------------   --------------------
FINAL SINGLE POINT ENERGY      -819.576433772579
-------------------------   --------------------



           ************************************************************
           *        Program running with 2 parallel MPI-processes     *
           *              working on a common directory               *
           ************************************************************
------------------------------------------------------------------------------
                            ORCA SCF RESPONSE CALCULATION
------------------------------------------------------------------------------

GBWName                                 ... /home/friday_code/Desktop/DP-Regenrate-Results/calculations/GlcNAc/GlcNAc-2/GlcNAc_InterFrag.gbw
Number of atoms                         ...     30
Number of basis functions               ...    285
Max core memory                         ...   3000 MB

Electric field perturbation             ... YES
Quadrupolar field perturbation          ...  NO
Magnetic field perturbation (no GIAO)   ...  NO
Magnetic field perturbation (with GIAO) ...  NO
Linear momentum (velocity) perturbation ...  NO
Spin-orbit coupling perturbation        ...  NO
Choice of electric origin               ... Center of mass
Position of electric origin             ...     0.105312    -0.052234    -0.004008
Choice of magnetic origin               ... GIAO
Position of magnetic origin             ...     0.000000     0.000000     0.000000
Nuclear geometric perturbations         ...  NO (  90 perturbations)
Nucleus-orbit perturbations             ...  NO (   0 perturbations)
Spin-dipole/Fermi contact perturbations ...  NO (   0 perturbations)

Total number of real perturbations      ...      3
Total number of imaginary perturbations ...      0
Total number of triplet perturbations   ...      0
Total number of SOC perturbations       ...      0

Using XC Grid                  ... (/home/friday_code/Desktop/DP-Regenrate-Results/calculations/GlcNAc/GlcNAc-2/GlcNAc_InterFrag.grid_cpscf.tmp) 
Recalculating density on grid  ... (/home/friday_code/Desktop/DP-Regenrate-Results/calculations/GlcNAc/GlcNAc-2/GlcNAc_InterFrag.grho_cpscf0.tmp) done
Calculating the xc-kernel      ... (/home/friday_code/Desktop/DP-Regenrate-Results/calculations/GlcNAc/GlcNAc-2/GlcNAc_InterFrag.fxc_cpscf0.tmp) done

                                **********************
                                * REAL PERTURBATIONS *
                                **********************



-------------------
SHARK CP-SCF DRIVER
-------------------

Dimension of the orbital basis          ...    285
Dimension of the CPSCF-problem          ...  13334
Number of operators                     ...      1
Max. number of iterations               ...    128
Convergence Tolerance                   ... 1.0e-04
Number of perturbations                 ...      3
Perturbation type                       ... REAL

----------------------------
POPLE LINEAR EQUATION SOLVER
----------------------------

  ITERATION   0:   ||err||_max =   1.3733e+01 (   2.1 sec   0/  3 done)
  ITERATION   1:   ||err||_max =   1.1076e+00 (   1.9 sec   0/  3 done)
  ITERATION   2:   ||err||_max =   3.5501e-01 (   1.9 sec   0/  3 done)
  ITERATION   3:   ||err||_max =   1.0024e-01 (   1.9 sec   0/  3 done)
  ITERATION   4:   ||err||_max =   3.3312e-02 (   1.9 sec   0/  3 done)
  ITERATION   5:   ||err||_max =   8.5464e-03 (   1.9 sec   0/  3 done)
  ITERATION   6:   ||err||_max =   2.9976e-03 (   1.9 sec   0/  3 done)
  ITERATION   7:   ||err||_max =   8.1074e-04 (   1.9 sec   0/  3 done)
  ITERATION   8:   ||err||_max =   2.4088e-04 (   1.9 sec   0/  3 done)
  ITERATION   9:   ||err||_max =   6.2236e-05 (   1.9 sec   3/  3 done)

CP-SCF equations solved in  19.1 sec
Response densities calculated in   0.0 sec

Maximum memory used throughout the entire SCFRESP-calculation: 40.7 MB


           ************************************************************
           *        Program running with 2 parallel MPI-processes     *
           *              working on a common directory               *
           ************************************************************

------------------------------------------------------------------------------
                              ORCA PROPERTY CALCULATIONS
------------------------------------------------------------------------------

GBWName                                 ... /home/friday_code/Desktop/DP-Regenrate-Results/calculations/GlcNAc/GlcNAc-2/GlcNAc_InterFrag.gbw
Number of atoms                         ...     30
Number of basis functions               ...    285
Max core memory                         ...   3000 MB

Electric properties:
Dipole moment                           ... YES
Quadrupole moment                       ...  NO
Static polarizability (Dipole/Dipole)   ... YES
Static polarizability (Dipole/Quad.)    ...  NO
Static polarizability (Quad./Quad.)     ...  NO
Static polarizability (Velocity)        ...  NO
Static hyperpolarizability              ...  NO

Atomic electric properties:
Dipole moment                           ...  NO
Quadrupole moment                       ...  NO
Static polarizability                   ...  NO

Choice of electric origin               ... Center of mass
Position of electric origin             ...     0.105312    -0.052234    -0.004008

General magnetic properties:
Magnetizability                         ...  NO

EPR properties:
g-Tensor (aka g-matrix)                 ...  NO
Zero-Field splitting spin-orbit         ...  NO
Zero-field splitting spin-spin          ...  NO
Hyperfine couplings                     ...  NO (   0 nuclei)
Quadrupole couplings                    ...  NO (   0 nuclei)
Contact density                         ...  NO (   0 nuclei)

NMR properties:
Chemical shifts                         ...  NO (   0 nuclei)
Spin-rotation constants                 ...  NO (   0 nuclei)
Spin-spin couplings                     ...  NO (   0 nuclei,    0 pairs)

Choice of magnetic origin               ... GIAO
Position of magnetic origin             ...     0.000000     0.000000     0.000000

Properties with geometric perturbations:
SCF Hessian                             ...  NO
IR spectrum                             ...  NO
VCD spectrum                            ...  NO
X-ray spectroscopy properties:
SCF XES/XAS/RIXS spectra                ...  NO

SCF SOC stabilization energy            ...  NO
Diagonal Born-Oppenheimer correction    ...  NO

-------------
DIPOLE MOMENT
-------------

Method             : SCF
Type of density    : Electron Density
Multiplicity       :   1
Irrep              :   0
Energy             :  -819.5245724902100619 Eh
Basis              : AO
                                X                 Y                 Z
Electronic contribution:      1.235696589      -0.535926907       2.304082010
Nuclear contribution   :     -0.901612414      -0.255436746      -3.159628622
                        -----------------------------------------
Total Dipole Moment    :      0.334084176      -0.791363653      -0.855546612
                        -----------------------------------------
Magnitude (a.u.)       :      1.212364909
Magnitude (Debye)      :      3.081586701



--------------------
Rotational spectrum 
--------------------
 
Rotational constants in cm-1:             0.034868             0.011947             0.009550 
Rotational constants in MHz :          1045.319284           358.174016           286.293730 

Dipole components along the rotational axes: 
x,y,z [a.u.] :     0.329945    -0.739300    -0.902442 
x,y,z [Debye]:     0.838652    -1.879151    -2.293824 

 

Dipole moment calculation done in   0.0 sec 


---------------------------------------------------
STATIC POLARIZABILITY TENSOR (Dipole/Dipole)
---------------------------------------------------

Method             : SCF
Type of density    : Electron Density
Type of derivative : Electric Field (Direction=X)
Multiplicity       :   1
Irrep              :   0
Basis              : AO

The raw cartesian tensor (atomic units):
     134.319983065         2.465945764        -0.662601312  
       2.465945764       102.015767158         4.532912259  
      -0.662601312         4.532912259        91.780086160  
diagonalized tensor: 
      90.010569405       103.595732536       134.509534442  

Orientation: 
       0.033933605        -0.066888675        -0.997183241  
      -0.359127458         0.930300403        -0.074623247  
       0.932671421         0.360648118         0.007546886  

Isotropic polarizability : 109.37195


Polarizability tensor calculation done in   0.0 sec 

Maximum memory used throughout the entire PROP-calculation: 18.6 MB

--------------------------------
SUGGESTED CITATIONS FOR THIS RUN
--------------------------------

Below you find a list of papers that are relevant to this ORCA run
We neither can nor want to force you to cite these papers, but we appreciate if you do
You receive ORCA, which is the product of decades of hard work by many enthusiastic individuals, for free
The only thing we kindly ask in return is that you cite our papers,
We deeply appreciate it, if you show your appreciation for ORCA by not just citing the generic ORCA reference.

Please note that relegating all ORCA citations to the supporting information does *not* help us.
SI sections are not indexed - citations you put there will not count into any citation statistics
But we need these citations in order to attract the funding resources that allow us to do what we are doing

Therefore, if you are a happy ORCA user, please consider citing a few of the papers listed below in the main body of your paper

In addition to the list printed below, the program has created the file /home/friday_code/Desktop/DP-Regenrate-Results/calculations/GlcNAc/GlcNAc-2/GlcNAc_InterFrag.bibtex that contains the list in bibtex format
You can import this file easily into all common literature databanks and citation aid programs

It goes without saying that in many instances, there are alternative algorithms to achieve similar
results as the ones you have gotten from ORCA. It is, of course, also the case that in some instances
ORCA just re-implements algorithms worked out by others. We are fully aware of that and we are also
fully appreciative of our colleagues work. Hence this citation list should not be read as indicating
that the listed papers, which are focused on our own work, are the only ones worth citing. It simply
meant to make it easier for users to cite ORCA specific papers. It is not a substitute for doing your
own literature research and citing the relevant literature in a scientifically appropriate manner.

List of essential papers. We consider these as the minimum necessary citations

  1. Neese, F.
     Software update: the ORCA program system, version 6.0
     WIRES Comput. Molec. Sci. 2025 15(1), e70019
     doi.org/10.1002/wcms.70019

List of papers to cite with high priority. The work reported in these papers was absolutely
necessary for this run to complete.
Our perspective: the developers of density functionals and basis sets usually get cited in chemistry papers
Good! But without the algorithms to do something with them, the functionals or basis sets would not do anything.
Hence, in our opinion, the algorithm design and method developments papers are equally worthy of getting cited

  1. Neese, F.
     An improvement of the resolution of the identity approximation for the formation of the Coulomb matrix
     J. Comp. Chem. 2003 24(14), 1740-1747
     doi.org/10.1002/jcc.10318
  2. Neese, F.; Wennmohs, F.; Hansen, A.; Becker, U.
     Efficient, approximate and parallel Hartree-Fock and hybrid DFT calculations. A 'chain-of-spheres' algorithm for the Hartree-Fock exchange
     Chem. Phys. 2009 356(1-3), 98-109
     doi.org/10.1016/j.chemphys.2008.10.036
  3. Grimme, S.; Antony, J.; Ehrlich, S.; Krieg, H.
     A consistent and accurate ab initio parametrization of density functional dispersion correction (DFT-D) for the 94 elements H-Pu
     J. Chem. Phys. 2010 132 , 154104
     doi.org/10.1063/1.3382344
  4. Grimme, S.; Ehrlich, S.; Goerigk, L.
     Effect of the damping function in dispersion corrected density functional theory
     J. Comput. Chem. 2011 32(7), 1456-1465
     doi.org/10.1002/jcc.21759
  5. Helmich-Paris, B.; de Souza, B.; Neese, F.; Izsák, R.
     An improved chain of spheres for exchange algorithm
     J. Chem. Phys. 2021 155(10), 104109
     doi.org/10.1063/5.0058766
  6. Neese, F.
     The SHARK Integral Generation and Digestion System
     J. Comp. Chem. 2022 44(3), 381
     doi.org/10.1002/jcc.26942

List of suggested additional citations. These are papers that are important in the 'surrounding' of 
of this run, or papers that preceded the highly important papers. If you like your results we are grateful for a citation.

  1. Izsak, R.; Neese, F.
     An overlap fitted chain of spheres exchange method
     J. Chem. Phys. 2011 135 , 144105
     doi.org/10.1063/1.3646921
  2. Izsak, R.; Hansen, A.; Neese, F.
     The resolution of identity and chain of spheres approximations for the LPNO-CCSD singles Fock term
     Molec. Phys. 2012 110 , 2413-2417
     doi.org/10.1080/00268976.2012.687466
  3. Neese, F.
     The ORCA program system
     WIRES Comput. Molec. Sci. 2012 2(1), 73-78
     doi.org/10.1002/wcms.81
  4. Izsak, R.; Neese, F.; Klopper, W.
     Robust fitting techniques in the chain of spheres approximation to the Fock exchange: The role of the complementary space
     J. Chem. Phys. 2013 139 , 
     doi.org/10.1063/1.4819264
  5. Neese, F.
     Software update: the ORCA program system, version 4.0
     WIRES Comput. Molec. Sci. 2018 8(1), 1-6
     doi.org/10.1002/wcms.1327
  6. Neese, F.; Wennmohs, F.; Becker, U.; Riplinger, C.
     The ORCA quantum chemistry program package
     J. Chem. Phys. 2020 152(22), 224108
     doi.org/10.1063/5.0004608
  7. Neese, F.
     Software update: The ORCA program system—Version 5.0
     WIRES Comput. Molec. Sci. 2022 12(1), e1606
     doi.org/10.1002/wcms.1606

List of optional additional citations

  1. Neese, F.
     Approximate second-order SCF convergence for spin unrestricted wavefunctions
     Chem. Phys. Lett. 2000 325(1-3), 93-98
     doi.org/10.1016/s0009-2614(00)00662-x

Timings for individual modules:

Sum of individual times          ...       63.044 sec (=   1.051 min)
Startup calculation              ...        2.151 sec (=   0.036 min)   3.4 %
SCF iterations                   ...       40.897 sec (=   0.682 min)  64.9 %
SCF Response                     ...       19.627 sec (=   0.327 min)  31.1 %
Property calculations            ...        0.369 sec (=   0.006 min)   0.6 %
                             ****ORCA TERMINATED NORMALLY****
TOTAL RUN TIME: 0 days 0 hours 1 minutes 3 seconds 475 msec
