
                                 *****************
                                 * O   R   C   A *
                                 *****************

                                            #,                                       
                                            ###                                      
                                            ####                                     
                                            #####                                    
                                            ######                                   
                                           ########,                                 
                                     ,,################,,,,,                         
                               ,,#################################,,                 
                          ,,##########################################,,             
                       ,#########################################, ''#####,          
                    ,#############################################,,   '####,        
                  ,##################################################,,,,####,       
                ,###########''''           ''''###############################       
              ,#####''   ,,,,##########,,,,          '''####'''          '####       
            ,##' ,,,,###########################,,,                        '##       
           ' ,,###''''                  '''############,,,                           
         ,,##''                                '''############,,,,        ,,,,,,###''
      ,#''                                            '''#######################'''  
     '                                                          ''''####''''         
             ,#######,   #######,   ,#######,      ##                                
            ,#'     '#,  ##    ##  ,#'     '#,    #''#        ,####,    ,#,          
            ##       ##  ##   ,#'  ##            #'  '#       #'       ,# #          
            ##       ##  #######   ##           ,######,      #####,      #          
            '#,     ,#'  ##    ##  '#,     ,#' ,#      #,     #,   #      #          
             '#######'   ##     ##  '#######'  #'      '#     '####' #    #          



                #########################################################
                #                        -***-                          #
                #          Department of theory and spectroscopy        #
                #                                                       #
                #                      Frank Neese                      #
                #                                                       #
                #     Directorship, Architecture, Infrastructure        #
                #                    SHARK, DRIVERS                     #
                #        Core code/Algorithms in most modules           #
                #                                                       #
                #        Max Planck Institute fuer Kohlenforschung      #
                #                Kaiser Wilhelm Platz 1                 #
                #                 D-45470 Muelheim/Ruhr                 #
                #                      Germany                          #
                #                                                       #
                #                  All rights reserved                  #
                #                        -***-                          #
                #########################################################


                         Program Version 6.1.1  -  RELEASE   -
                                (GIT: $487d211c$)
                          ($2025-11-21 10:33:24 +0100$)
                                                                         
                                  - NO-DMRG VERSION -                    
                                                                         


 With contributions from (in alphabetic order):
[Max-Planck-Institut fuer Kohlenforschung]                               
  Daniel Aravena         : Magnetic Suceptibility                        
  Michael Atanasov       : Ab Initio Ligand Field Theory (pilot matlab implementation)
  Alexander A. Auer      : GIAO ZORA, VPT2 properties, NMR spectrum      
  Ute Becker             : All parallelization in ORCA, NUMFREQ, NUMCALC 
  Giovanni Bistoni       : ED, misc. LED, open-shell LED, HFLD           
  Dmytro Bykov           : pre 5.0 version of the SCF Hessian            
  Marcos Casanova-Páez   : Triplet and SCS-CIS(D). UHF-(DLPNO)-IP/EA/STEOM-CCSD. UHF-CVS-IP/STEOM-CCSD   
  Vijay G. Chilkuri      : MRCI spin determinant printing, contributions to CSF-ICE 
  Pauline Colinet        : FMM embedding                                 
  Dipayan Datta          : RHF DLPNO-CCSD density                        
  Achintya Kumar Dutta   : EOM-CC, STEOM-CC                              
  Nicolas Foglia         : Exact transition moments, OPA infrastructure, MCD improvements    
  Dmitry Ganyushin       : Spin-Orbit,Spin-Spin,Magnetic field MRCI      
  Miquel Garcia-Rates    : C-PCM and meta-GGA Hessian, CCSD/C-PCM, Gaussian charge scheme 
  Tiago L. C. Gouveia    : GS-ROHF, GS-ROCIS                             
  Yang Guo               : DLPNO-NEVPT2, F12-NEVPT2, CIM, IAO-localization        
  Andreas Hansen         : Spin unrestricted coupled pair/coupled cluster methods 
  Ingolf Harden          : AUTO-CI MPn and infrastructure                
  Benjamin Helmich-Paris : MC-RPA, TRAH-(SCF,CASSCF), AVAS, COSX integrals, SCF dyn. polar., MC-PDFT, srDFT 
  Lee Huntington         : MR-EOM, pCC                                   
  Robert Izsak           : Overlap fitted RIJCOSX, COSX-SCS-MP3, EOM     
  Riya Kayal             : Wick's Theorem for AUTO-CI, AUTO-CI UHF-CCSDT 
  Emily Kempfer          : AUTO-CI RHF CISDT and CCSDT, approximate NEVPT4
  Christian Kollmar      : KDIIS, OOCD, Brueckner-CCSD(T), CCSD density, CASPT2, CASPT2-K, improved NEVPT2 
  Axel Koslowski         : Symmetry handling                             
  Simone Kossmann        : meta-GGA functionals, TD-DFT gradient, OOMP2, (MP2 Hessian; deprecated post 5.0) 
  Lucas Lang             : DCDCAS, Hyperfine gauge corrections, ICE-SOC+SSC
  Marvin Lechner         : AUTO-CI (C++ implementation), FIC-MRCC        
  Spencer Leger          : CASSCF response                               
  Dagmar Lenk            : GEPOL surface, SMD, ORCA-2-JSON               
  Dimitrios Liakos       : Extrapolation schemes; Compound Job, Property file
  Dimitrios Manganas     : Further ROCIS development; embedding schemes. LFT, Crystal Embedding 
  Dimitrios Pantazis     : SARC Basis sets                               
  Anastasios Papadopoulos: AUTO-CI, single reference methods and gradients 
  Taras Petrenko         : pre 6.0 DFT Hessian and TD-DFT gradient,  ECA, NRVS 
  Petra Pikulova         : Analytic Raman intensities                    
  Peter Pinski           : DLPNO-MP2, DLPNO-MP2 Gradient                 
  Shashank Vittal Rao    : ES-AILFT, MagRelax                            
  Christoph Reimann      : Effective Core Potentials                     
  Marius Retegan         : Local ZFS, SOC                                
  Christoph Riplinger    : Optimizer, TS searches, QM/MM, DLPNO-CCSD(T), (RO)-DLPNO pert. Triples 
  Michael Roemelt        : Original ROCIS implementation, recursive CI coupling coefficients
  Masaaki Saitow         : Open-shell DLPNO-CCSD energy and density      
  Barbara Sandhoefer     : DKH picture change effects                    
  Yorick L. A. Schmerwitz: GMF and freeze-and-release deltaSCF, NEB S-IDPP initial path                    
  Kantharuban Sivalingam : CASSCF convergence/infrastructure, NEVPT2, NEVPT3, NEVPT4(SD), FIC-MRCI and CEPA variants
  Bernardo de Souza      : ESD, SOC TD-DFT                               
  Georgi L. Stoychev     : AutoAux, RI-MP2 NMR, DLPNO-MP2 response, X2C  
  Van Anh Tran           : RI-MP2 g-tensors                              
  Willem Van den Heuvel  : Paramagnetic NMR                              
  Zikuan Wang            : NOTCH, Electric field optimization            
  Frank Wennmohs         : Technical directorship and infrastructure     
  Hang Xu                : AUTO-CI-Response properties                   
                                                                         
[FACCTs GmbH]                                                            
  Markus Bursch, Nicolas Foglia, Miquel Garcia-Rates, Ingolf Harden, Hagen Neugebauer, Anastasios Papadopoulos, 
  Christoph Riplinger, Bernardo de Souza, Georgi L. Stoychev                                                    
                                                                 
  APM, various basis sets, CI-OPT, improved COSX, DLPNO-Multilevel,           
  DOCKER, DRACO, updates on ESD, Fragmentator, GOAT, IRC, LR-CPCM, L-BFGS, MBIS, meta-GGA TD-DFT gradient, ML-optimized integration grids, 
  MM, NACMEs, nearIR, NEB, NEB-TS, NL-DFT gradient (VV10), 2- and 3-layer-ONIOM, interface openCOSMO-RS, QMMM,   
  Crystal-QMMM, RESP, rigid body optimization, SF, symmetry and pop. for TD-DFT, various functionals, SOLVATOR                                   
                                                                         
[Other institutions]                                                     
  V. Asgeirsson          : NEB                                           
  Christoph Bannwarth    : sTDA-DFT, sTD-DFT, PBEh-3c, B97-3c, D3        
  Giovanni Bistoni       : ETS/NOCV, ADLD/ADEX, COVALED                  
  Martin Brehm           : Molecular dynamics                            
  Ronald Cardenas        : ETS/NOCV                                      
  Martina Colucci        : COVALED                                       
  Sebastian Ehlert       : rSCAN, r2SCAN, r2SCAN-3c, D4, dhf basis sets  
  Marvin Friede          : D4 for Fr, Ra, Ac-Lr                          
  Lars Goerigk           : TD-DFT with DH, B97 family of functionals     
  Stefan Grimme          : VdW corrections, initial TS optimization, DFT functionals, gCP, sTDA/sTD-DF 
  Waldemar Hujo          : DFT-NL                                        
  H. Jonsson             : NEB                                           
  Holger Kruse           : gCP                                           
  Marcel Mueller         : wB97X-3c, vDZP basis set                      
  Hagen Neugebauer       : wr2SCAN, Native XTB                           
  Gianluca Regni         : ADLD/ADEX                                     
  Tobias Risthaus        : pre 6.0 range-separated hybrid DFT and stability analysis
  Lukas Wittmann         : regularized MP2, r2SCAN double-hybrids, wr2SCAN        
                                                                         
We gratefully acknowledge several colleagues who have allowed us to      
interface, adapt or use parts of their codes:                            
  Ed Valeev, F. Pavosevic, A. Kumar             : LibInt (2-el integral package), F12 methods 
  Garnet Chan, S. Sharma, J. Yang, R. Olivares  : DMRG                   
  Ulf Ekstrom                                   : XCFun DFT Library      
  Mihaly Kallay                                 : mrcc  (arbitrary order and MRCC methods)
  Frank Weinhold                                : gennbo (NPA and NBO analysis)           
  Simon Mueller                                 : openCOSMO-RS                            
  Christopher J. Cramer and Donald G. Truhlar   : smd solvation model                     
  S Lehtola, MJT Oliveira, MAL Marques          : LibXC Library                           
  Liviu Ungur et al                             : ANISO software                          


 Your calculation uses the libint2 library for the computation of 2-el integrals
 For citations please refer to: http://libint.valeyev.net

 Your ORCA version has been built with support for libXC version: 7.0.0
 For citations please refer to: https://libxc.gitlab.io

 This ORCA versions uses:
   CBLAS   interface :  Fast vector & matrix operations
   LAPACKE interface :  Fast linear algebra routines
   SCALAPACK package :  Parallel linear algebra routines
   Shared memory     :  Shared parallel matrices
   BLAS/LAPACK       :  OpenBLAS 0.3.29  USE64BITINT DYNAMIC_ARCH NO_AFFINITY Haswell SINGLE_THREADED
        Core in use  :  Haswell
   Copyright (c) 2011-2014, The OpenBLAS Project


  ***********************************
  * Starting time: Sat Mar 28 19:57:58 2026
  * Host name:     2f7b0cb3d232
  * Process ID:    46
  * Working dir.:  /kaggle/working
  ***********************************

NOTE: MaxCore=3000 MB was set to SCF,MP2,MDCI,CIPSI,MRCI,RASCI and CIS
      => If you want to overwrite this, your respective input block should be placed after the MaxCore statement
Your calculation utilizes the atom-pairwise dispersion correction
with the Becke-Johnson damping scheme (D3BJ)


Your calculation utilizes the SMD solvation module
Please cite in your paper:
Marenich, A. V.; Cramer, C. J.; Truhlar, D. G. J. Phys. Chem. B 2009, 113, 6378 

Warning: RI is on but no J-basis has been assigned. Assigning Def2/J (nothing to worry about!)
================================================================================

----- Orbital basis set information -----
Your calculation utilizes the basis: 6-31G(d,p)
   H-He, Li-Ne : W. J. Hehre, R. Ditchfield and J.A. Pople, J. Chem. Phys. 56, 2257 (1972).
                 Note: He and Ne are unpublished basis sets taken from the Gaussian program.
                 Note: Li and B from J. D. Dill and J. A. Pople, J. Chem. Phys. 62, 2921 (1975).
   Na - Ar     : M. M. Francl, W. J. Pietro, W. J. Hehre, J. S. Binkley, M. S. Gordon, 
                 D. J. DeFrees and J. A. Pople, J. Chem. Phys. 77, 3654 (1982).
   K - Zn      : V. A. Rassolov, J. A. Pople, M. A. Ratner, and T. L. Windus, J. Chem. Phys. 109, 1223 (1998).

----- AuxJ basis set information -----
Your calculation utilizes the auxiliary basis: def2/J
   H-Rn: F. Weigend, Phys. Chem. Chem. Phys. 8, 1057 (2006).
   Fr-Lr: K. Eichkorn, F. Weigend, O. Treutler, R. Ahlrichs; Theor. Chem. Acc. 97, 119 (1997).

================================================================================
                                        WARNINGS
                       Please study these warnings very carefully!
================================================================================


WARNING: Geometry Optimization
  ===> : Switching off AutoStart
         For restart on a previous wavefunction, please use MOREAD

================================================================================
                                       INPUT FILE
================================================================================
NAME = /kaggle/working/Trp-OMe-1/Trp-OMe_InterFrag.inp
|  1> 
|  2> !RKS B3LYP 6-31G(d,p) TightSCF Opt D3BJ
|  3>  
|  4> %pal nprocs 2 end
|  5> %maxcore 3000
|  6> 
|  7> %cpcm
|  8>   smd true
|  9>   SMDsolvent "WATER"
| 10>   end
| 11> 
| 12> %scf
| 13>   MaxIter 1000
| 14>   SOSCF Start 0.00033
| 15>   end
| 16> end
| 17> 
| 18> %output
| 19>   PrintLevel Normal
| 20>   Print[ P_OrbEn ] 2        # print ALL orbital energies (not just up to LUMO+9) :contentReference[oaicite:10]{index=10}
| 21>   XYZFile true              # writes basename.xyz (handy for reuse) :contentReference[oaicite:11]{index=11}
| 22>   end
| 23> 
| 24> *xyz 0 1
| 25> O       -2.826800000     -2.159900000     -0.218600000
| 26> O        1.626800000     -0.520600000      1.896000000
| 27> O        2.181800000     -2.230000000      0.511900000
| 28> N       -0.607500000      2.835300000      0.207200000
| 29> N        4.063600000     -0.614700000     -0.663000000
| 30> C        0.759100000      1.279900000     -0.593000000
| 31> C        1.960000000      0.613800000     -1.136100000
| 32> C       -0.498800000      0.671400000     -0.324700000
| 33> C       -1.338000000      1.668800000      0.176600000
| 34> C        2.901500000      0.027400000     -0.052800000
| 35> C        0.661000000      2.610300000     -0.256200000
| 36> C       -1.005700000     -0.636300000     -0.460500000
| 37> C       -2.664000000      1.422800000      0.550400000
| 38> C       -2.330000000     -0.897100000     -0.090600000
| 39> C       -3.144800000      0.118100000      0.406800000
| 40> C        2.205400000     -1.035400000      0.780000000
| 41> C       -1.943600000     -3.153900000     -0.733500000
| 42> H        1.651200000     -0.185100000     -1.824000000
| 43> H        2.524200000      1.331200000     -1.747500000
| 44> H        3.256600000      0.821200000      0.615600000
| 45> H        1.378500000      3.417600000     -0.303200000
| 46> H       -0.957800000      3.728200000      0.526000000
| 47> H       -0.333400000     -1.386500000     -0.857500000
| 48> H       -3.298900000      2.212600000      0.937800000
| 49> H       -4.171700000     -0.100500000      0.690000000
| 50> H        4.716900000     -0.904800000      0.063900000
| 51> H        4.563400000      0.061000000     -1.239800000
| 52> H        1.187700000     -1.214200000      2.433000000
| 53> H       -2.501400000     -4.095700000     -0.765900000
| 54> H       -1.086400000     -3.314700000     -0.070600000
| 55> H       -1.638700000     -2.929300000     -1.761300000
| 56> *
| 57> 
| 58>                          ****END OF INPUT****
================================================================================

                       *****************************
                       * Geometry Optimization Run *
                       *****************************

Geometry optimization settings:
Update method            Update   .... BFGS
Choice of coordinates    CoordSys .... (2022) Redundant Internals
Initial Hessian          InHess   .... Almloef's Model
Max. no of cycles        MaxIter  .... 93

Convergence Tolerances:
Energy Change            TolE     ....  5.0000e-06 Eh
Max. Gradient            TolMAXG  ....  3.0000e-04 Eh/bohr
RMS Gradient             TolRMSG  ....  1.0000e-04 Eh/bohr
Max. Displacement        TolMAXD  ....  4.0000e-03 bohr
RMS Displacement         TolRMSD  ....  2.0000e-03 bohr
Strict Convergence                .... False

------------------------------------------------------------------------------
                        ORCA OPTIMIZATION COORDINATE SETUP
------------------------------------------------------------------------------

The optimization will be done in redundant internal coordinates (2022)
Making redundant internal coordinates   ...  (2022 redundants) done
Evaluating the initial hessian          ...  (Almloef) done
Evaluating the coordinates              ...  done
Calculating the B-matrix                .... done
Calculating the G-matrix                .... done
The number of degrees of freedom        ....  154

    -----------------------------------------------------------------
                    Redundant Internal Coordinates


    -----------------------------------------------------------------
         Definition                    Initial Value    Approx d2E/dq
    -----------------------------------------------------------------
      1. B(C   6,C   5)                  1.4768         0.454282   
      2. B(C   7,C   5)                  1.4229         0.553721   
      3. B(C   8,N   3)                  1.3767         0.587629   
      4. B(C   8,C   7)                  1.3966         0.609931   
      5. B(C   9,C   6)                  1.5504         0.346566   
      6. B(C   9,N   4)                  1.4612         0.430801   
      7. B(C  10,N   3)                  1.3691         0.604237   
      8. B(C  10,C   5)                  1.3759         0.658082   
      9. B(C  11,C   7)                  1.4091         0.582531   
     10. B(C  12,C   8)                  1.3995         0.603432   
     11. B(C  13,C  11)                  1.3995         0.603357   
     12. B(C  13,O   0)                  1.3630         0.617874   
     13. B(C  14,C  13)                  1.3935         0.616738   
     14. B(C  14,C  12)                  1.3979         0.606998   
     15. B(C  15,O   1)                  1.3584         0.628478   
     16. B(C  15,C   9)                  1.5191         0.388842   
     17. B(C  15,O   2)                  1.2245         1.027668   
     18. B(C  16,O   0)                  1.4259         0.490449   
     19. B(H  17,C   6)                  1.0985         0.348969   
     20. B(H  18,C   6)                  1.0985         0.348976   
     21. B(H  19,C   9)                  1.0968         0.351214   
     22. B(H  20,C  10)                  1.0811         0.372086   
     23. B(H  21,N   3)                  1.0107         0.431519   
     24. B(H  22,C  11)                  1.0828         0.369789   
     25. B(H  23,C  12)                  1.0849         0.366940   
     26. B(H  24,C  14)                  1.0874         0.363511   
     27. B(H  25,N   4)                  1.0195         0.417896   
     28. B(H  26,N   4)                  1.0193         0.418102   
     29. B(H  27,O   1)                  0.9809         0.481444   
     30. B(H  28,C  16)                  1.0951         0.353455   
     31. B(H  29,C  16)                  1.0955         0.352918   
     32. B(H  29,H  27)                  3.9814         0.010000   
     33. B(H  30,C  16)                  1.0953         0.353097   
     34. A(C  13,O   0,C  16)          117.0001         0.410623   
     35. A(C  15,O   1,H  27)          111.8665         0.366113   
     36. A(C   8,N   3,H  21)          124.8645         0.355249   
     37. A(C   8,N   3,C  10)          110.1729         0.422367   
     38. A(C  10,N   3,H  21)          124.9626         0.356934   
     39. A(H  25,N   4,H  26)          106.1339         0.299929   
     40. A(C   9,N   4,H  26)          109.5701         0.335415   
     41. A(C   9,N   4,H  25)          109.6901         0.335388   
     42. A(C   6,C   5,C   7)          126.5387         0.402486   
     43. A(C   7,C   5,C  10)          107.7179         0.429917   
     44. A(C   6,C   5,C  10)          125.7434         0.414980   
     45. A(C   9,C   6,H  18)          108.9042         0.318718   
     46. A(C   5,C   6,H  18)          109.1337         0.333230   
     47. A(H  17,C   6,H  18)          105.7105         0.287992   
     48. A(C   5,C   6,H  17)          109.2521         0.333229   
     49. A(C   9,C   6,H  17)          109.4613         0.318717   
     50. A(C   5,C   6,C   9)          114.0450         0.370941   
     51. A(C   8,C   7,C  11)          118.7659         0.427973   
     52. A(C   5,C   7,C   8)          107.0673         0.424104   
     53. A(C   5,C   7,C  11)          134.1668         0.420636   
     54. A(N   3,C   8,C  12)          130.2232         0.425032   
     55. A(C   7,C   8,C  12)          122.6630         0.430688   
     56. A(N   3,C   8,C   7)          107.1137         0.425847   
     57. A(N   4,C   9,H  19)          108.3631         0.328675   
     58. A(C   6,C   9,C  15)          111.6784         0.361187   
     59. A(N   4,C   9,C  15)          106.6146         0.372574   
     60. A(N   4,C   9,C   6)          110.9387         0.365282   
     61. A(C  15,C   9,H  19)          108.7001         0.325123   
     62. A(C   6,C   9,H  19)          110.4061         0.319051   
     63. A(N   3,C  10,C   5)          107.9281         0.433859   
     64. A(C   5,C  10,H  20)          131.6138         0.358484   
     65. A(N   3,C  10,H  20)          120.4581         0.351152   
     66. A(C   7,C  11,C  13)          119.2015         0.427143   
     67. A(C  13,C  11,H  22)          123.7338         0.352870   
     68. A(C   7,C  11,H  22)          117.0636         0.350780   
     69. A(C  14,C  12,H  23)          120.9894         0.352767   
     70. A(C   8,C  12,H  23)          121.4606         0.352415   
     71. A(C   8,C  12,C  14)          117.5500         0.430316   
     72. A(O   0,C  13,C  11)          119.5197         0.428861   
     73. A(C  11,C  13,C  14)          120.7880         0.431538   
     74. A(O   0,C  13,C  14)          119.6923         0.430553   
     75. A(C  13,C  14,H  24)          119.9115         0.353157   
     76. A(C  12,C  14,H  24)          119.0569         0.352207   
     77. A(C  12,C  14,C  13)          121.0316         0.432005   
     78. A(O   2,C  15,C   9)          124.8426         0.434244   
     79. A(O   1,C  15,C   9)          112.3605         0.397879   
     80. A(O   1,C  15,O   2)          122.7769         0.470709   
     81. A(H  29,C  16,H  30)          112.3393         0.289030   
     82. A(H  28,C  16,H  30)          106.8805         0.289099   
     83. A(O   0,C  16,H  30)          111.6115         0.336113   
     84. A(H  28,C  16,H  29)          106.8724         0.289076   
     85. A(O   0,C  16,H  29)          111.6220         0.336084   
     86. A(O   0,C  16,H  28)          107.1403         0.336169   
     87. D(H  18,C   6,C   5,C   7)    147.9139         0.015217   
     88. D(C   9,C   6,C   5,C  10)     89.9970         0.015217   
     89. D(C   9,C   6,C   5,C   7)    -90.0596         0.015217   
     90. D(H  17,C   6,C   5,C  10)   -147.1649         0.015217   
     91. D(H  17,C   6,C   5,C   7)     32.7785         0.015217   
     92. D(C  11,C   7,C   5,C   6)      0.0303         0.020985   
     93. D(C   8,C   7,C   5,C  10)     -0.0233         0.020985   
     94. D(C  11,C   7,C   5,C  10)    179.9821         0.020985   
     95. D(C   8,C   7,C   5,C   6)   -179.9750         0.020985   
     96. D(N   3,C   8,C   7,C  11)   -179.9907         0.025693   
     97. D(C  12,C   8,N   3,H  21)      0.0186         0.027744   
     98. D(C   7,C   8,N   3,H  21)   -179.9888         0.027744   
     99. D(C  12,C   8,N   3,C  10)   -179.9917         0.027744   
    100. D(C  12,C   8,C   7,C  11)      0.0026         0.025693   
    101. D(C  12,C   8,C   7,C   5)   -179.9930         0.025693   
    102. D(C   7,C   8,N   3,C  10)      0.0008         0.027744   
    103. D(N   3,C   8,C   7,C   5)      0.0137         0.025693   
    104. D(C  15,C   9,C   6,H  18)   -176.6751         0.010000   
    105. D(C  15,C   9,C   6,C   5)     61.1722         0.010000   
    106. D(N   4,C   9,C   6,H  18)    -57.8882         0.010000   
    107. D(N   4,C   9,C   6,H  17)     57.2353         0.010000   
    108. D(N   4,C   9,C   6,C   5)    179.9592         0.010000   
    109. D(H  19,C   9,N   4,H  25)     52.6449         0.015823   
    110. D(C  15,C   9,N   4,H  26)    179.6668         0.015823   
    111. D(C  15,C   9,N   4,H  25)    -64.2005         0.015823   
    112. D(C  15,C   9,C   6,H  17)    -61.5517         0.010000   
    113. D(C   6,C   9,N   4,H  26)     57.8691         0.015823   
    114. D(C   6,C   9,N   4,H  25)    174.0018         0.015823   
    115. D(H  20,C  10,N   3,C   8)   -179.9646         0.029449   
    116. D(C   5,C  10,N   3,H  21)    179.9740         0.029449   
    117. D(C   5,C  10,N   3,C   8)     -0.0156         0.029449   
    118. D(H  20,C  10,C   5,C   7)    179.9650         0.030207   
    119. D(H  20,C  10,C   5,C   6)     -0.0828         0.030207   
    120. D(N   3,C  10,C   5,C   7)      0.0238         0.030207   
    121. D(N   3,C  10,C   5,C   6)    179.9761         0.030207   
    122. D(H  20,C  10,N   3,H  21)      0.0250         0.029449   
    123. D(H  22,C  11,C   7,C   8)    179.6349         0.023324   
    124. D(H  22,C  11,C   7,C   5)     -0.3710         0.023324   
    125. D(C  13,C  11,C   7,C   8)     -0.0047         0.023324   
    126. D(C  13,C  11,C   7,C   5)    179.9895         0.023324   
    127. D(H  23,C  12,C   8,C   7)    179.9968         0.025118   
    128. D(H  23,C  12,C   8,N   3)     -0.0116         0.025118   
    129. D(C  14,C  12,C   8,C   7)     -0.0034         0.025118   
    130. D(C  14,C  12,C   8,N   3)    179.9882         0.025118   
    131. D(C  14,C  13,C  11,H  22)   -179.6062         0.025111   
    132. D(C  14,C  13,C  11,C   7)      0.0078         0.025111   
    133. D(O   0,C  13,C  11,H  22)      0.4204         0.025111   
    134. D(O   0,C  13,C  11,C   7)   -179.9656         0.025111   
    135. D(C  14,C  13,O   0,C  16)    179.9943         0.027995   
    136. D(C  11,C  13,O   0,C  16)     -0.0319         0.027995   
    137. D(H  24,C  14,C  13,C  11)   -179.9929         0.026303   
    138. D(H  24,C  14,C  13,O   0)     -0.0195         0.026303   
    139. D(C  12,C  14,C  13,C  11)     -0.0089         0.026303   
    140. D(C  12,C  14,C  13,O   0)    179.9645         0.026303   
    141. D(H  24,C  14,C  12,H  23)     -0.0096         0.025432   
    142. D(H  24,C  14,C  12,C   8)    179.9906         0.025432   
    143. D(C  13,C  14,C  12,H  23)   -179.9938         0.025432   
    144. D(C  13,C  14,C  12,C   8)      0.0065         0.025432   
    145. D(O   1,C  15,C   9,H  19)     29.9497         0.011252   
    146. D(O   1,C  15,C   9,C   6)    -92.1012         0.011252   
    147. D(O   1,C  15,C   9,N   4)    146.5708         0.011252   
    148. D(C   9,C  15,O   1,H  27)   -179.3999         0.029037   
    149. D(O   2,C  15,O   1,H  27)     -0.9557         0.029037   
    150. D(O   2,C  15,C   9,C   6)     89.4927         0.011252   
    151. D(O   2,C  15,C   9,N   4)    -31.8354         0.011252   
    152. D(H  30,C  16,O   0,C  13)    -63.4301         0.018995   
    153. D(H  29,C  16,O   0,C  13)     63.2111         0.018995   
    154. D(H  28,C  16,O   0,C  13)    179.8884         0.018995   
    -----------------------------------------------------------------

Number of atoms                         .... 31
Number of degrees of freedom            .... 154


         *************************************************************
         *                GEOMETRY OPTIMIZATION CYCLE   1            *
         *************************************************************
---------------------------------
CARTESIAN COORDINATES (ANGSTROEM)
---------------------------------
  O     -2.826800   -2.159900   -0.218600
  O      1.626800   -0.520600    1.896000
  O      2.181800   -2.230000    0.511900
  N     -0.607500    2.835300    0.207200
  N      4.063600   -0.614700   -0.663000
  C      0.759100    1.279900   -0.593000
  C      1.960000    0.613800   -1.136100
  C     -0.498800    0.671400   -0.324700
  C     -1.338000    1.668800    0.176600
  C      2.901500    0.027400   -0.052800
  C      0.661000    2.610300   -0.256200
  C     -1.005700   -0.636300   -0.460500
  C     -2.664000    1.422800    0.550400
  C     -2.330000   -0.897100   -0.090600
  C     -3.144800    0.118100    0.406800
  C      2.205400   -1.035400    0.780000
  C     -1.943600   -3.153900   -0.733500
  H      1.651200   -0.185100   -1.824000
  H      2.524200    1.331200   -1.747500
  H      3.256600    0.821200    0.615600
  H      1.378500    3.417600   -0.303200
  H     -0.957800    3.728200    0.526000
  H     -0.333400   -1.386500   -0.857500
  H     -3.298900    2.212600    0.937800
  H     -4.171700   -0.100500    0.690000
  H      4.716900   -0.904800    0.063900
  H      4.563400    0.061000   -1.239800
  H      1.187700   -1.214200    2.433000
  H     -2.501400   -4.095700   -0.765900
  H     -1.086400   -3.314700   -0.070600
  H     -1.638700   -2.929300   -1.761300

----------------------------
CARTESIAN COORDINATES (A.U.)
----------------------------
  NO LB      ZA    FRAG     MASS         X           Y           Z
   0 O     8.0000    0    15.999   -5.341878   -4.081619   -0.413094
   1 O     8.0000    0    15.999    3.074206   -0.983791    3.582921
   2 O     8.0000    0    15.999    4.123004   -4.214089    0.967351
   3 N     7.0000    0    14.007   -1.148009    5.357941    0.391551
   4 N     7.0000    0    14.007    7.679091   -1.161615   -1.252888
   5 C     6.0000    0    12.011    1.434491    2.418660   -1.120608
   6 C     6.0000    0    12.011    3.703863    1.159914   -2.146918
   7 C     6.0000    0    12.011   -0.942595    1.268762   -0.613594
   8 C     6.0000    0    12.011   -2.528454    3.153575    0.333726
   9 C     6.0000    0    12.011    5.483040    0.051778   -0.099778
  10 C     6.0000    0    12.011    1.249109    4.932752   -0.484148
  11 C     6.0000    0    12.011   -1.900498   -1.202433   -0.870219
  12 C     6.0000    0    12.011   -5.034230    2.688702    1.040105
  13 C     6.0000    0    12.011   -4.403062   -1.695273   -0.171209
  14 C     6.0000    0    12.011   -5.942811    0.223177    0.768741
  15 C     6.0000    0    12.011    4.167602   -1.956622    1.473986
  16 C     6.0000    0    12.011   -3.672872   -5.960007   -1.386114
  17 H     1.0000    0     1.008    3.120316   -0.349788   -3.446860
  18 H     1.0000    0     1.008    4.770047    2.515603   -3.302296
  19 H     1.0000    0     1.008    6.154082    1.551843    1.163315
  20 H     1.0000    0     1.008    2.604987    6.458328   -0.572965
  21 H     1.0000    0     1.008   -1.809980    7.045277    0.993996
  22 H     1.0000    0     1.008   -0.630035   -2.620105   -1.620440
  23 H     1.0000    0     1.008   -6.234018    4.181208    1.772185
  24 H     1.0000    0     1.008   -7.883371   -0.189917    1.303911
  25 H     1.0000    0     1.008    8.913649   -1.709824    0.120753
  26 H     1.0000    0     1.008    8.623576    0.115273   -2.342882
  27 H     1.0000    0     1.008    2.244428   -2.294505    4.597704
  28 H     1.0000    0     1.008   -4.726961   -7.739751   -1.447341
  29 H     1.0000    0     1.008   -2.052998   -6.263875   -0.133415
  30 H     1.0000    0     1.008   -3.096694   -5.535575   -3.328375

--------------------------------
INTERNAL COORDINATES (ANGSTROEM)
--------------------------------
 O      0   0   0     0.000000000000     0.00000000     0.00000000
 O      1   0   0     5.195516394931     0.00000000     0.00000000
 O      2   1   0     2.268436944242    73.95594674     0.00000000
 N      2   1   3     4.371064714689    69.31861884   128.97074585
 N      3   2   1     2.744222173950    89.16594328   128.27569912
 C      4   2   1     2.219726280423    44.48800939   278.06868969
 C      6   4   2     1.476755778726   161.67662603   254.91306006
 C      6   4   2     1.422873694324    71.78465794    74.99871455
 C      4   2   1     1.376694904472    68.24026994     7.13590317
 C      5   3   2     1.461202539007    62.25761181   332.82868625
 C      4   2   1     1.369108034452    62.03075353   237.91019591
 C      8   6   4     1.409066549174   134.16680282   179.99680932
 C      9   4   2     1.399470771399   130.22322336   133.21457169
 C      1   2   3     1.363032677525    49.98602649   228.41262866
 C     14   1   2     1.393533939307   119.69232304   228.07243119
 C      3   2   1     1.224542253252    30.23079713   111.15754605
 C      1   2   3     1.425903310186    80.55939499     6.18631264
 H      7   6   4     1.098546794634   109.25207863   212.87979027
 H      7   6   4     1.098541924553   109.13366160   328.01518241
 H     10   5   3     1.096801262764   108.36309580   129.45270645
 H     11   4   2     1.081086740276   120.45805038   230.07449809
 H      4   2   1     1.010749197378   137.18308428   125.48208322
 H     12   8   6     1.082772519969   117.06356091   359.62902271
 H     13   9   4     1.084878246625   121.46063694     0.00000000
 H     15  14   1     1.087433588777   119.91146771     0.00000000
 H      5   3   2     1.019481490759    88.08984264    86.30980414
 H      5   3   2     1.019347227396   165.61909621   274.66458513
 H      2   1   3     0.980947893621    67.41849510   268.91240017
 H     17   1   2     1.095069787730   107.14030412   144.60036591
 H     17   1   2     1.095483861132   111.62195866    27.92300206
 H     17   1   2     1.095345612124   111.61150614   261.28179154

---------------------------
INTERNAL COORDINATES (A.U.)
---------------------------
 O      0   0   0     0.000000000000     0.00000000     0.00000000
 O      1   0   0     9.818103110718     0.00000000     0.00000000
 O      2   1   0     4.286724576686    73.95594674     0.00000000
 N      2   1   3     8.260115224409    69.31861884   128.97074585
 N      3   2   1     5.185828359400    89.16594328   128.27569912
 C      4   2   1     4.194674762267    44.48800939   278.06868969
 C      6   4   2     2.790663988477   161.67662603   254.91306006
 C      6   4   2     2.688841605434    71.78465794    74.99871455
 C      4   2   1     2.601576339418    68.24026994     7.13590317
 C      5   3   2     2.761272624913    62.25761181   332.82868625
 C      4   2   1     2.587239232865    62.03075353   237.91019591
 C      8   6   4     2.662749882408   134.16680282   179.99680932
 C      9   4   2     2.644616490372   130.22322336   133.21457169
 C      1   2   3     2.575758472107    49.98602649   228.41262866
 C     14   1   2     2.633397503614   119.69232304   228.07243119
 C      3   2   1     2.314049498062    30.23079713   111.15754605
 C      1   2   3     2.694566749704    80.55939499     6.18631264
 H      7   6   4     2.075952587155   109.25207863   212.87979027
 H      7   6   4     2.075943384035   109.13366160   328.01518241
 H     10   5   3     2.072654009962   108.36309580   129.45270645
 H     11   4   2     2.042957866135   120.45805038   230.07449809
 H      4   2   1     1.910039173125   137.18308428   125.48208322
 H     12   8   6     2.046143528077   117.06356091   359.62902271
 H     13   9   4     2.050122774770   121.46063694     0.00000000
 H     15  14   1     2.054951671615   119.91146771     0.00000000
 H      5   3   2     1.926540816136    88.08984264    86.30980414
 H      5   3   2     1.926287095150   165.61909621   274.66458513
 H      2   1   3     1.853722870591    67.41849510   268.91240017
 H     17   1   2     2.069381996342   107.14030412   144.60036591
 H     17   1   2     2.070164481670   111.62195866    27.92300206
 H     17   1   2     2.069903228907   111.61150614   261.28179154

---------------------
BASIS SET INFORMATION
---------------------
There are 4 groups of distinct atoms

 Group   1 Type O   : 10s4p1d contracted to 3s2p1d pattern {631/31/1}
 Group   2 Type N   : 10s4p1d contracted to 3s2p1d pattern {631/31/1}
 Group   3 Type C   : 10s4p1d contracted to 3s2p1d pattern {631/31/1}
 Group   4 Type H   : 4s1p contracted to 2s1p pattern {31/1}

Atom   0O    basis set group =>   1
Atom   1O    basis set group =>   1
Atom   2O    basis set group =>   1
Atom   3N    basis set group =>   2
Atom   4N    basis set group =>   2
Atom   5C    basis set group =>   3
Atom   6C    basis set group =>   3
Atom   7C    basis set group =>   3
Atom   8C    basis set group =>   3
Atom   9C    basis set group =>   3
Atom  10C    basis set group =>   3
Atom  11C    basis set group =>   3
Atom  12C    basis set group =>   3
Atom  13C    basis set group =>   3
Atom  14C    basis set group =>   3
Atom  15C    basis set group =>   3
Atom  16C    basis set group =>   3
Atom  17H    basis set group =>   4
Atom  18H    basis set group =>   4
Atom  19H    basis set group =>   4
Atom  20H    basis set group =>   4
Atom  21H    basis set group =>   4
Atom  22H    basis set group =>   4
Atom  23H    basis set group =>   4
Atom  24H    basis set group =>   4
Atom  25H    basis set group =>   4
Atom  26H    basis set group =>   4
Atom  27H    basis set group =>   4
Atom  28H    basis set group =>   4
Atom  29H    basis set group =>   4
Atom  30H    basis set group =>   4
---------------------------------
AUXILIARY/J BASIS SET INFORMATION
---------------------------------
There are 4 groups of distinct atoms

 Group   1 Type O   : 12s5p4d2f1g contracted to 6s4p3d1f1g pattern {711111/2111/211/2/1}
 Group   2 Type N   : 12s5p4d2f1g contracted to 6s4p3d1f1g pattern {711111/2111/211/2/1}
 Group   3 Type C   : 12s5p4d2f1g contracted to 6s4p3d1f1g pattern {711111/2111/211/2/1}
 Group   4 Type H   : 5s2p1d contracted to 3s1p1d pattern {311/2/1}

Atom   0O    basis set group =>   1
Atom   1O    basis set group =>   1
Atom   2O    basis set group =>   1
Atom   3N    basis set group =>   2
Atom   4N    basis set group =>   2
Atom   5C    basis set group =>   3
Atom   6C    basis set group =>   3
Atom   7C    basis set group =>   3
Atom   8C    basis set group =>   3
Atom   9C    basis set group =>   3
Atom  10C    basis set group =>   3
Atom  11C    basis set group =>   3
Atom  12C    basis set group =>   3
Atom  13C    basis set group =>   3
Atom  14C    basis set group =>   3
Atom  15C    basis set group =>   3
Atom  16C    basis set group =>   3
Atom  17H    basis set group =>   4
Atom  18H    basis set group =>   4
Atom  19H    basis set group =>   4
Atom  20H    basis set group =>   4
Atom  21H    basis set group =>   4
Atom  22H    basis set group =>   4
Atom  23H    basis set group =>   4
Atom  24H    basis set group =>   4
Atom  25H    basis set group =>   4
Atom  26H    basis set group =>   4
Atom  27H    basis set group =>   4
Atom  28H    basis set group =>   4
Atom  29H    basis set group =>   4
Atom  30H    basis set group =>   4


           ************************************************************
           *        Program running with 2 parallel MPI-processes     *
           *              working on a common directory               *
           ************************************************************
------------------------------------------------------------------------------
                             ORCA STARTUP CALCULATIONS
                           -- RI-GTO INTEGRALS CHOSEN --
------------------------------------------------------------------------------
------------------------------------------------------------------------------
                   ___                                                        
                  /   \      - P O W E R E D   B Y -                         
                 /     \                                                     
                 |  |  |   _    _      __       _____    __    __             
                 |  |  |  | |  | |    /  \     |  _  \  |  |  /  |          
                  \  \/   | |  | |   /    \    | | | |  |  | /  /          
                 / \  \   | |__| |  /  /\  \   | |_| |  |  |/  /          
                |  |  |   |  __  | /  /__\  \  |    /   |      \           
                |  |  |   | |  | | |   __   |  |    \   |  |\   \          
                \     /   | |  | | |  |  |  |  | |\  \  |  | \   \       
                 \___/    |_|  |_| |__|  |__|  |_| \__\ |__|  \__/        
                                                                              
                      - O R C A' S   B I G   F R I E N D -                    
                                      &                                       
                       - I N T E G R A L  F E E D E R -                       
                                                                              
 v1 FN, 2020, v2 2021, v3 2022-2024                                           
------------------------------------------------------------------------------


----------------------
SHARK INTEGRAL PACKAGE
----------------------

Number of atoms                             ...     31
Number of basis functions                   ...    308
Number of shells                            ...    144
Maximum angular momentum                    ...      2
Integral batch strategy                     ... SHARK/LIBINT Hybrid
RI-J (if used) integral strategy            ... SPLIT-RIJ (Revised 2003 algorithm where possible)
Printlevel                                  ...      1
Contraction scheme used                     ... SEGMENTED contraction
Prescreening option                         ... SCHWARTZ
   Thresh                                   ... 2.500e-11
   Tcut                                     ... 2.500e-12
   Tpresel                                  ... 2.500e-12 
Coulomb Range Separation                    ... NOT USED
Exchange Range Separation                   ... NOT USED
Multipole approximations                    ... NOT USED
Finite Nucleus Model                        ... NOT USED
CABS basis                                  ... NOT available
Auxiliary Coulomb fitting basis             ... AVAILABLE
   # of basis functions in Aux-J            ...    987
   # of shells in Aux-J                     ...    325
   Maximum angular momentum in Aux-J        ...      4
Auxiliary J/K fitting basis                 ... NOT available
Auxiliary Correlation fitting basis         ... NOT available
Auxiliary 'external' fitting basis          ... NOT available

Checking pre-screening integrals            ... done (  0.0 sec) Dimension = 144
   => SHARK Basis and OBASIS are compatible. Storing Pre-screening
Shell pair information
Shell pair cut-off parameter TPreSel        ...   2.5e-12
Total number of shell pairs                 ...     10440
Shell pairs after pre-screening             ...      8195
Total number of primitive shell pairs       ...     53374
Primitive shell pairs kept                  ...     24913
          la=0 lb=0:   2477 shell pairs
          la=1 lb=0:   3004 shell pairs
          la=1 lb=1:    955 shell pairs
          la=2 lb=0:   1010 shell pairs
          la=2 lb=1:    634 shell pairs
          la=2 lb=2:    115 shell pairs

Checking whether 4 symmetric matrices of dimension 308 fit in memory
:Max Core in MB      =   3000.00
 MB in use           =     14.43
 MB left             =   2985.57
 MB needed           =      1.45
 Data fit in memory  = YES
Calculating RI/J V-Matrix + Cholesky decomp.... done (  0.1 sec)
Calculating Nuclear repulsion               ... done (  0.0 sec) ENN=   1222.180646839953 Eh

Diagonalization of the overlap matrix:
Smallest eigenvalue                        ... 3.503e-04
Time for diagonalization                   ...    0.014 sec
Threshold for overlap eigenvalues          ... 1.000e-07
Number of eigenvalues below threshold      ... 0
Time for construction of square roots      ...    0.006 sec
Total time needed                          ...    0.021 sec

-------------------
DFT GRID GENERATION
-------------------

General Integration Accuracy     IntAcc      ... 4.388
Radial Grid Type                 RadialGrid  ... OptM3 with GC (2021)
Angular Grid (max. ang.)         AngularGrid ... 4 (Lebedev-302)
Angular grid pruning method      GridPruning ... 4 (adaptive)
Weight generation scheme         WeightScheme... mBecke (2022)
Basis function cutoff            BFCut       ... 1.0000e-11
Integration weight cutoff        WCut        ... 1.0000e-14
Partially contracted basis set               ... off
Rotationally invariant grid construction     ... off
Angular grids for H and He will be reduced by one unit

Total number of grid points                  ...   146497
Total number of batches                      ...     2306
Average number of points per batch           ...       63
Average number of grid points per atom       ...     4726

--------------------
COSX GRID GENERATION
--------------------

GRIDX 1
-------
General Integration Accuracy     IntAcc      ... 3.816
Radial Grid Type                 RadialGrid  ... OptM3 with GC (2021)
Angular Grid (max. ang.)         AngularGrid ... 1 (Lebedev-50)
Angular grid pruning method      GridPruning ... 4 (adaptive)
Weight generation scheme         WeightScheme... mBecke (2022)
Basis function cutoff            BFCut       ... 1.0000e-11
Integration weight cutoff        WCut        ... 1.0000e-14
Partially contracted basis set               ... on
Rotationally invariant grid construction     ... off
Angular grids for H and He will be reduced by one unit

Total number of grid points                  ...    18631
Total number of batches                      ...      163
Average number of points per batch           ...      114
Average number of grid points per atom       ...      601
UseSFitting                                  ... on

GRIDX 2
-------
General Integration Accuracy     IntAcc      ... 4.020
Radial Grid Type                 RadialGrid  ... OptM3 with GC (2021)
Angular Grid (max. ang.)         AngularGrid ... 2 (Lebedev-110)
Angular grid pruning method      GridPruning ... 4 (adaptive)
Weight generation scheme         WeightScheme... mBecke (2022)
Basis function cutoff            BFCut       ... 1.0000e-11
Integration weight cutoff        WCut        ... 1.0000e-14
Partially contracted basis set               ... on
Rotationally invariant grid construction     ... off
Angular grids for H and He will be reduced by one unit

Total number of grid points                  ...    40391
Total number of batches                      ...      333
Average number of points per batch           ...      121
Average number of grid points per atom       ...     1303
UseSFitting                                  ... on

GRIDX 3
-------
General Integration Accuracy     IntAcc      ... 4.338
Radial Grid Type                 RadialGrid  ... OptM3 with GC (2021)
Angular Grid (max. ang.)         AngularGrid ... 3 (Lebedev-194)
Angular grid pruning method      GridPruning ... 4 (adaptive)
Weight generation scheme         WeightScheme... mBecke (2022)
Basis function cutoff            BFCut       ... 1.0000e-11
Integration weight cutoff        WCut        ... 1.0000e-14
Partially contracted basis set               ... on
Rotationally invariant grid construction     ... off
Angular grids for H and He will be reduced by one unit

Total number of grid points                  ...    88422
Total number of batches                      ...      706
Average number of points per batch           ...      125
Average number of grid points per atom       ...     2852
UseSFitting                                  ... on
Grids setup in   4.8 sec
Initializing property integral containers    ... done (  0.0 sec)

SHARK setup successfully completed in   5.4 seconds

Maximum memory used throughout the entire STARTUP-calculation: 51.3 MB


           ************************************************************
           *        Program running with 2 parallel MPI-processes     *
           *              working on a common directory               *
           ************************************************************
-------------------------------------------------------------------------------
                                 ORCA GUESS
                   Start orbitals & Density for SCF / CASSCF
-------------------------------------------------------------------------------

------------
SCF SETTINGS
------------
Hamiltonian:
 Density Functional     Method          .... DFT(GTOs)
 Exchange Functional    Exchange        .... B88
   X-Alpha parameter    XAlpha          ....  0.666667
   Becke's b parameter  XBeta           ....  0.004200
 Correlation Functional Correlation     .... LYP
 LDA part of GGA corr.  LDAOpt          .... VWN-5
 Gradients option       PostSCFGGA      .... off
 Hybrid DFT is turned on
   Fraction HF Exchange ScalHFX         ....  0.200000
   Scaling of DF-GGA-X  ScalDFX         ....  0.720000
   Scaling of DF-GGA-C  ScalDFC         ....  0.810000
   Scaling of DF-LDA-C  ScalLDAC        ....  1.000000
   Perturbative correction              ....  0.000000
   NL short-range parameter             ....  4.800000
 RI-approximation to the Coulomb term is turned on
   Number of AuxJ basis functions       .... 987
   RIJ-COSX (HFX calculated with COS-X)).... on


General Settings:
 Integral files         IntName         .... /kaggle/working/Trp-OMe-1/Trp-OMe_InterFrag
 Hartree-Fock type      HFTyp           .... RHF
 Total Charge           Charge          ....    0
 Multiplicity           Mult            ....    1
 Number of Electrons    NEL             ....  124
 Basis Dimension        Dim             ....  308
 Nuclear Repulsion      ENuc            ....   1222.1806468400 Eh

Convergence Acceleration:
 AO-DIIS                CNVDIIS         .... on
   Start iteration      DIISMaxIt       ....    12
   Startup error        DIISStart       ....  0.200000
   # of expansion vecs  DIISMaxEq       ....     5
   Bias factor          DIISBfac        ....   1.050
   Max. coefficient     DIISMaxC        ....  10.000
 MO-DIIS                CNVKDIIS        .... off
 Trust-Rad. Augm. Hess. CNVTRAH         .... auto
   Auto Start mean grad. ratio tolernc. ....  1.125000
   Auto Start start iteration           ....    50
   Auto Start num. interpolation iter.  ....    10
   Max. Number of Micro iterations      ....    24
   Max. Number of Macro iterations      .... Maxiter - #DIIS iter
   Number of Davidson start vectors     ....     2
   Converg. threshold    (grad. norm)   ....   1.000e-05
   Grad. Scal. Fac. for Micro threshold ....   0.100
   Minimum threshold for Micro iter.    ....   1.000e-02
   NR start threshold (gradient norm)   ....   1.000e-04
   Initial trust radius                 ....   0.400
   Minimum AH scaling param. (alpha)    ....   1.000
   Maximum AH scaling param. (alpha)    .... 1000.000
   Quad. conv. algorithm                .... NR
   White noise on init. David. guess    .... on
   Maximum white noise                  ....   0.010
   Pseudo random numbers                .... off
   Inactive MOs                         .... canonical
   Orbital update algorithm             .... Taylor
   Preconditioner                       .... Diag
   Full preconditioner red. dimension   ....   250
 SOSCF                 CNVSOSCF           .... on
   Start iteration     SOSCFMaxIt         ....   150
   Startup grad/error  SOSCFStart         ....  0.000330
   Hessian update      SOSCFHessUp        .... L-BFGS
   Autom. constraints  SOSCFAutoConstrain .... off
 Level Shifting         CNVShift        .... on
   Level shift para.    LevelShift      ....    0.2500
   Turn off err/grad.   ShiftErr        ....    0.0010
 Zerner damping         CNVZerner       .... off
 Static damping         CNVDamp         .... on
   Fraction old density DampFac         ....    0.7000
   Max. Damping (<1)    DampMax         ....    0.9800
   Min. Damping (>=0)   DampMin         ....    0.0000
   Turn off err/grad.   DampErr         ....    0.1000

SCF Procedure:
 Maximum # iterations   MaxIter         ....  1000
 SCF integral mode      SCFMode         .... Direct
   Integral package                     .... SHARK and LIBINT hybrid scheme
 Reset frequency        DirectResetFreq ....    20
 Integral Threshold     Thresh          ....  2.500e-11 Eh
 Primitive CutOff       TCut            ....  2.500e-12 Eh

Convergence Tolerance:
 Convergence Check Mode ConvCheckMode   .... Total+1el-Energy
 Convergence forced     ConvForced      .... 0
 Energy Change          TolE            ....  1.000e-08 Eh
 1-El. energy change                    ....  1.000e-05 Eh
 Orbital Gradient       TolG            ....  1.000e-05
 Orbital Rotation angle TolX            ....  1.000e-05
 DIIS Error             TolErr          ....  5.000e-07

------------------------------
INITIAL GUESS: MODEL POTENTIAL
------------------------------
Loading Hartree-Fock densities                     ... done
Calculating cut-offs                               ... done
Initializing the effective Hamiltonian             ... done
Setting up the integral package (SHARK)            ... done
Starting the Coulomb interaction                   ... done (   0.5 sec)
Making the grid                                    ... done (   0.7 sec)
Mapping shells                                     ... done
Starting the XC term evaluation                    ... done (   0.3 sec)
  promolecular density results
     # of electrons  =    123.991771365
     EX              =   -103.687742512
     EC              =     -4.251136615
     EX+EC           =   -107.938879127
Transforming the Hamiltonian                       ... done (   0.0 sec)
Diagonalizing the Hamiltonian                      ... done (   0.0 sec)
Back transforming the eigenvectors                 ... done (   0.0 sec)
Now organizing SCF variables                       ... done
                      ------------------
                      INITIAL GUESS DONE (   1.5 sec)
                      ------------------
             **** ENERGY FILE WAS UPDATED (/kaggle/working/Trp-OMe-1/Trp-OMe_InterFrag.en.tmp) ****
Finished Guess after   1.9 sec
Maximum memory used throughout the entire GUESS-calculation: 20.7 MB


           ************************************************************
           *        Program running with 2 parallel MPI-processes     *
           *              working on a common directory               *
           ************************************************************

-------------------------------------------------------------------------------------------
                                      ORCA LEAN-SCF
                              memory conserving SCF solver
-------------------------------------------------------------------------------------------

--------------------
CPCM SOLVATION MODEL
--------------------
CPCM parameters:
  Epsilon                                         ...      78.3550
  Refrac                                          ...       1.3328
  Rsolv                                           ...       1.3000
  Surface type                                    ... GAUSSIAN VDW
  Discretization scheme                           ... Constant charge density
    Threshold for H atoms                         ...       5.0000 (charges/Ang^2)
    Threshold for non-H atoms                     ...       5.0000 (charges/Ang^2)
  Epsilon function type                           ...         CPCM
Solvent:                                          ... WATER
SMD-CDS solvent descriptors:
  Soln                                            ...       1.3328
  Soln25                                          ...       1.3323
  Sola                                            ...       0.0000
  Solb                                            ...       0.0000
  Solg                                            ...       0.0000
  Solc                                            ...       0.0000
  Solh                                            ...       0.0000
Radii:
  Scheme                                          ... Element-dependent radii
  Radius for O  used is    2.8724 Bohr (=   1.5200 Ang.)
  Radius for N  used is    3.5716 Bohr (=   1.8900 Ang.)
  Radius for C  used is    3.4960 Bohr (=   1.8500 Ang.)
  Radius for H  used is    2.2677 Bohr (=   1.2000 Ang.)
Calculating surface                               ...        done! (  0.0s)
Cavity surface points                             ...         2335
Cavity Volume                                     ...    1557.3388
Cavity Surface-area                               ...     922.8506
Calculating surface distance matrix               ...        done! (  0.2s)
Performing Cholesky decomposition & store         ...        done! (  0.4s)
Overall time for CPCM initialization              ...                 0.6s

----------------------------------------D-I-I-S--------------------------------------------
Iteration    Energy (Eh)           Delta-E    RMSDP     MaxDP     DIISErr   Damp  Time(sec)
-------------------------------------------------------------------------------------------
               ***  Starting incremental Fock matrix formation  ***
    1    -800.0145150570344867     0.00e+00  3.29e-03  9.09e-02  2.62e-01  0.700  14.0
    2    -800.2172372543441270    -2.03e-01  2.25e-03  5.20e-02  1.12e-01  0.700   7.3
                               ***Turning on AO-DIIS***
    3    -800.2997694770297130    -8.25e-02  9.62e-04  1.68e-02  3.48e-02  0.700   7.1
    4    -800.3492595530692597    -4.95e-02  1.72e-03  2.69e-02  1.86e-02  0.000   6.8
    5    -800.4566430177849270    -1.07e-01  3.13e-04  6.84e-03  6.07e-03  0.000   7.0
    6    -800.4572514366736868    -6.08e-04  1.02e-04  2.27e-03  2.34e-03  0.000   6.3
    7    -800.4572883298633315    -3.69e-05  3.85e-05  8.68e-04  6.57e-04  0.000   5.7
               *** Restarting incremental Fock matrix formation ***
                             ****Resetting DIIS****
    8    -800.4572894256089057    -1.10e-06  3.07e-05  1.03e-03  6.20e-04  0.000  14.0
    9    -800.4572878473338733     1.58e-06  1.59e-05  7.74e-04  1.10e-03  0.000   8.6
                              *** Initializing SOSCF ***
---------------------------------------S-O-S-C-F--------------------------------------
Iteration    Energy (Eh)           Delta-E    RMSDP     MaxDP     MaxGrad    Time(sec)
--------------------------------------------------------------------------------------
   10    -800.4572908121147066    -2.96e-06  2.73e-06  8.76e-05  9.39e-05     4.8
               *** Restarting incremental Fock matrix formation ***
   11    -800.4572907637102617     4.84e-08  3.41e-06  1.09e-04  3.21e-05    14.0
   12    -800.4572907415254122     2.22e-08  2.14e-06  8.06e-05  6.35e-05     6.3
   13    -800.4572907881702122    -4.66e-08  5.24e-07  1.97e-05  4.93e-06     5.7
   14    -800.4572907784936433     9.68e-09  3.25e-07  1.24e-05  6.70e-06     4.8
                 **** Energy Check signals convergence ****

               *****************************************************
               *                     SUCCESS                       *
               *           SCF CONVERGED AFTER  14 CYCLES          *
               *****************************************************

Recomputing exchange energy using gridx3       ... done (   22.381 sec)
Old exchange energy                            :    -21.062034687 Eh
New exchange energy                            :    -21.062070585 Eh
Exchange energy change after final integration :     -0.000035898 Eh
Total energy after final integration           :   -800.457326683 Eh

SMD CDS free energy correction energy :                 6.48631     Kcal/mol
Total Energy after SMD CDS correction =              -800.446990097 Eh
             **** ENERGY FILE WAS UPDATED (/kaggle/working/Trp-OMe-1/Trp-OMe_InterFrag.en.tmp) ****

----------------
TOTAL SCF ENERGY
----------------

Total Energy       :       -800.44699009723593 Eh          -21781.26994 eV

Components:
Nuclear Repulsion  :       1222.18064683995271 Eh           33257.22617 eV
Electronic Energy  :      -2022.59154126967837 Eh          -55037.51389 eV
One Electron Energy:      -3518.82902072798515 Eh          -95752.20560 eV
Two Electron Energy:       1496.23747945830678 Eh           40714.69171 eV
CPCM Dielectric    :         -0.04639635549197 Eh              -1.26251 eV
SMD CDS (Gcds)     :          0.01033658578215 Eh               0.28127 eV

Virial components:
Potential Energy   :      -1596.11940997879856 Eh          -43432.61722 eV
Kinetic Energy     :        795.67241988156252 Eh           21651.34728 eV
Virial Ratio       :          2.00600067326248

DFT components:
N(Alpha)           :       61.999968002635 electrons
N(Beta)            :       61.999968002635 electrons
N(Total)           :      123.999936005271 electrons
E(X)               :      -83.675152175350 Eh       
E(C)               :       -5.008101576072 Eh       
E(XC)              :      -88.683253751422 Eh       

CPCM Solvation Model Properties:
Surface-charge          :         -0.03925753940189
Corrected charge        :          0.00000000000000
Outlying charge corr.   :          0.00009536852658 Eh               0.00260 eV
Free-energy (cav+disp)  :          0.01033658578215 Eh               0.28127 eV

---------------
SCF CONVERGENCE
---------------

  Last Energy change         ...   -9.6766e-09  Tolerance :   1.0000e-08
  Last MAX-Density change    ...    1.2444e-05  Tolerance :   1.0000e-07
  Last RMS-Density change    ...    3.2544e-07  Tolerance :   5.0000e-09
  Last DIIS Error            ...    9.3865e-05  Tolerance :   5.0000e-07
  Last Orbital Gradient      ...    6.6987e-06  Tolerance :   1.0000e-05
  Last Orbital Rotation      ...    6.9833e-06  Tolerance :   1.0000e-05


----------------
ORBITAL ENERGIES
----------------

  NO   OCC          E(Eh)            E(eV) 
   0   2.0000     -19.186462      -522.0902 
   1   2.0000     -19.163596      -521.4679 
   2   2.0000     -19.138741      -520.7916 
   3   2.0000     -14.357554      -390.6889 
   4   2.0000     -14.301021      -389.1506 
   5   2.0000     -10.317006      -280.7400 
   6   2.0000     -10.229442      -278.3573 
   7   2.0000     -10.216896      -278.0159 
   8   2.0000     -10.214606      -277.9536 
   9   2.0000     -10.199917      -277.5538 
  10   2.0000     -10.197642      -277.4919 
  11   2.0000     -10.179968      -277.0110 
  12   2.0000     -10.178173      -276.9622 
  13   2.0000     -10.171943      -276.7926 
  14   2.0000     -10.166703      -276.6501 
  15   2.0000     -10.165961      -276.6299 
  16   2.0000     -10.161014      -276.4952 
  17   2.0000      -1.093212       -29.7478 
  18   2.0000      -1.053512       -28.6675 
  19   2.0000      -1.008716       -27.4486 
  20   2.0000      -0.968973       -26.3671 
  21   2.0000      -0.881199       -23.9786 
  22   2.0000      -0.831811       -22.6347 
  23   2.0000      -0.793049       -21.5800 
  24   2.0000      -0.740043       -20.1376 
  25   2.0000      -0.733567       -19.9614 
  26   2.0000      -0.706314       -19.2198 
  27   2.0000      -0.683625       -18.6024 
  28   2.0000      -0.665003       -18.0956 
  29   2.0000      -0.606720       -16.5097 
  30   2.0000      -0.587111       -15.9761 
  31   2.0000      -0.577109       -15.7039 
  32   2.0000      -0.548623       -14.9288 
  33   2.0000      -0.526084       -14.3155 
  34   2.0000      -0.503672       -13.7056 
  35   2.0000      -0.501271       -13.6403 
  36   2.0000      -0.478724       -13.0267 
  37   2.0000      -0.477171       -12.9845 
  38   2.0000      -0.465509       -12.6672 
  39   2.0000      -0.455950       -12.4070 
  40   2.0000      -0.449824       -12.2403 
  41   2.0000      -0.444955       -12.1078 
  42   2.0000      -0.428237       -11.6529 
  43   2.0000      -0.421796       -11.4777 
  44   2.0000      -0.413517       -11.2524 
  45   2.0000      -0.412050       -11.2124 
  46   2.0000      -0.393086       -10.6964 
  47   2.0000      -0.386240       -10.5101 
  48   2.0000      -0.381016       -10.3680 
  49   2.0000      -0.372425       -10.1342 
  50   2.0000      -0.364442        -9.9170 
  51   2.0000      -0.353067        -9.6074 
  52   2.0000      -0.347866        -9.4659 
  53   2.0000      -0.338708        -9.2167 
  54   2.0000      -0.318485        -8.6664 
  55   2.0000      -0.311411        -8.4739 
  56   2.0000      -0.291400        -7.9294 
  57   2.0000      -0.276441        -7.5223 
  58   2.0000      -0.264946        -7.2096 
  59   2.0000      -0.234011        -6.3678 
  60   2.0000      -0.202247        -5.5034 
  61   2.0000      -0.188934        -5.1411 
  62   0.0000      -0.007443        -0.2025 
  63   0.0000       0.002746         0.0747 
  64   0.0000       0.046145         1.2557 
  65   0.0000       0.071169         1.9366 
  66   0.0000       0.097860         2.6629 
  67   0.0000       0.103326         2.8117 
  68   0.0000       0.112450         3.0599 
  69   0.0000       0.119246         3.2448 
  70   0.0000       0.132492         3.6053 
  71   0.0000       0.144680         3.9369 
  72   0.0000       0.148911         4.0521 
  73   0.0000       0.161936         4.4065 
  74   0.0000       0.167784         4.5656 
  75   0.0000       0.173568         4.7230 
  76   0.0000       0.181953         4.9512 
  77   0.0000       0.187009         5.0888 
  78   0.0000       0.192931         5.2499 
  79   0.0000       0.194827         5.3015 
  80   0.0000       0.198695         5.4068 
  81   0.0000       0.205939         5.6039 
  82   0.0000       0.215918         5.8754 
  83   0.0000       0.253590         6.9005 
  84   0.0000       0.262465         7.1420 
  85   0.0000       0.270358         7.3568 
  86   0.0000       0.277383         7.5480 
  87   0.0000       0.289322         7.8729 
  88   0.0000       0.296898         8.0790 
  89   0.0000       0.312531         8.5044 
  90   0.0000       0.326547         8.8858 
  91   0.0000       0.348976         9.4961 
  92   0.0000       0.359123         9.7722 
  93   0.0000       0.377749        10.2791 
  94   0.0000       0.390531        10.6269 
  95   0.0000       0.419358        11.4113 
  96   0.0000       0.467420        12.7191 
  97   0.0000       0.492621        13.4049 
  98   0.0000       0.501634        13.6502 
  99   0.0000       0.518016        14.0959 
 100   0.0000       0.520994        14.1770 
 101   0.0000       0.532721        14.4961 
 102   0.0000       0.544231        14.8093 
 103   0.0000       0.548712        14.9312 
 104   0.0000       0.550745        14.9865 
 105   0.0000       0.564760        15.3679 
 106   0.0000       0.569765        15.5041 
 107   0.0000       0.582321        15.8458 
 108   0.0000       0.597880        16.2691 
 109   0.0000       0.604733        16.4556 
 110   0.0000       0.611630        16.6433 
 111   0.0000       0.618883        16.8407 
 112   0.0000       0.619782        16.8651 
 113   0.0000       0.625299        17.0153 
 114   0.0000       0.637188        17.3388 
 115   0.0000       0.644164        17.5286 
 116   0.0000       0.649105        17.6631 
 117   0.0000       0.656988        17.8775 
 118   0.0000       0.663065        18.0429 
 119   0.0000       0.687788        18.7157 
 120   0.0000       0.696853        18.9623 
 121   0.0000       0.701908        19.0999 
 122   0.0000       0.728232        19.8162 
 123   0.0000       0.747086        20.3292 
 124   0.0000       0.750780        20.4298 
 125   0.0000       0.759198        20.6588 
 126   0.0000       0.781693        21.2709 
 127   0.0000       0.794124        21.6092 
 128   0.0000       0.800212        21.7749 
 129   0.0000       0.806024        21.9330 
 130   0.0000       0.819627        22.3032 
 131   0.0000       0.823818        22.4172 
 132   0.0000       0.831008        22.6129 
 133   0.0000       0.838242        22.8097 
 134   0.0000       0.840032        22.8584 
 135   0.0000       0.859785        23.3959 
 136   0.0000       0.867901        23.6168 
 137   0.0000       0.872549        23.7433 
 138   0.0000       0.876993        23.8642 
 139   0.0000       0.878767        23.9125 
 140   0.0000       0.904758        24.6197 
 141   0.0000       0.909255        24.7421 
 142   0.0000       0.914942        24.8968 
 143   0.0000       0.923704        25.1353 
 144   0.0000       0.929705        25.2986 
 145   0.0000       0.944028        25.6883 
 146   0.0000       0.949921        25.8487 
 147   0.0000       0.956190        26.0192 
 148   0.0000       0.975430        26.5428 
 149   0.0000       0.983199        26.7542 
 150   0.0000       1.006256        27.3816 
 151   0.0000       1.015287        27.6274 
 152   0.0000       1.021840        27.8057 
 153   0.0000       1.038070        28.2473 
 154   0.0000       1.041873        28.3508 
 155   0.0000       1.048655        28.5354 
 156   0.0000       1.069335        29.0981 
 157   0.0000       1.090400        29.6713 
 158   0.0000       1.100682        29.9511 
 159   0.0000       1.126692        30.6589 
 160   0.0000       1.144661        31.1478 
 161   0.0000       1.151927        31.3455 
 162   0.0000       1.167300        31.7639 
 163   0.0000       1.185064        32.2472 
 164   0.0000       1.218949        33.1693 
 165   0.0000       1.242064        33.7983 
 166   0.0000       1.245435        33.8900 
 167   0.0000       1.251022        34.0420 
 168   0.0000       1.298845        35.3434 
 169   0.0000       1.320299        35.9272 
 170   0.0000       1.328563        36.1520 
 171   0.0000       1.340312        36.4718 
 172   0.0000       1.354793        36.8658 
 173   0.0000       1.365916        37.1685 
 174   0.0000       1.375607        37.4322 
 175   0.0000       1.381875        37.6027 
 176   0.0000       1.398603        38.0579 
 177   0.0000       1.400648        38.1136 
 178   0.0000       1.432424        38.9782 
 179   0.0000       1.439577        39.1729 
 180   0.0000       1.461477        39.7688 
 181   0.0000       1.464882        39.8615 
 182   0.0000       1.469499        39.9871 
 183   0.0000       1.493142        40.6305 
 184   0.0000       1.515644        41.2428 
 185   0.0000       1.566989        42.6399 
 186   0.0000       1.580029        42.9948 
 187   0.0000       1.603222        43.6259 
 188   0.0000       1.636103        44.5206 
 189   0.0000       1.648299        44.8525 
 190   0.0000       1.685690        45.8699 
 191   0.0000       1.711325        46.5675 
 192   0.0000       1.721042        46.8319 
 193   0.0000       1.749221        47.5987 
 194   0.0000       1.761433        47.9310 
 195   0.0000       1.777416        48.3660 
 196   0.0000       1.784589        48.5611 
 197   0.0000       1.795507        48.8582 
 198   0.0000       1.813435        49.3461 
 199   0.0000       1.844009        50.1780 
 200   0.0000       1.849928        50.3391 
 201   0.0000       1.859544        50.6008 
 202   0.0000       1.863170        50.6994 
 203   0.0000       1.870348        50.8947 
 204   0.0000       1.877205        51.0813 
 205   0.0000       1.890034        51.4304 
 206   0.0000       1.901591        51.7449 
 207   0.0000       1.906983        51.8917 
 208   0.0000       1.918535        52.2060 
 209   0.0000       1.926331        52.4181 
 210   0.0000       1.933576        52.6153 
 211   0.0000       1.936051        52.6826 
 212   0.0000       1.966287        53.5054 
 213   0.0000       1.974126        53.7187 
 214   0.0000       1.984091        53.9899 
 215   0.0000       1.990943        54.1763 
 216   0.0000       2.015467        54.8436 
 217   0.0000       2.018314        54.9211 
 218   0.0000       2.026643        55.1478 
 219   0.0000       2.045297        55.6554 
 220   0.0000       2.053658        55.8829 
 221   0.0000       2.067334        56.2550 
 222   0.0000       2.075296        56.4717 
 223   0.0000       2.093364        56.9633 
 224   0.0000       2.117457        57.6189 
 225   0.0000       2.127666        57.8967 
 226   0.0000       2.141304        58.2678 
 227   0.0000       2.149254        58.4842 
 228   0.0000       2.161904        58.8284 
 229   0.0000       2.181064        59.3498 
 230   0.0000       2.210405        60.1482 
 231   0.0000       2.219920        60.4071 
 232   0.0000       2.235015        60.8179 
 233   0.0000       2.249217        61.2043 
 234   0.0000       2.268993        61.7424 
 235   0.0000       2.271769        61.8180 
 236   0.0000       2.293131        62.3993 
 237   0.0000       2.294315        62.4315 
 238   0.0000       2.317360        63.0586 
 239   0.0000       2.331045        63.4310 
 240   0.0000       2.336475        63.5787 
 241   0.0000       2.358843        64.1874 
 242   0.0000       2.378118        64.7119 
 243   0.0000       2.386204        64.9319 
 244   0.0000       2.408904        65.5496 
 245   0.0000       2.421284        65.8865 
 246   0.0000       2.430319        66.1323 
 247   0.0000       2.434267        66.2398 
 248   0.0000       2.458636        66.9029 
 249   0.0000       2.480966        67.5105 
 250   0.0000       2.497496        67.9603 
 251   0.0000       2.519579        68.5612 
 252   0.0000       2.522571        68.6426 
 253   0.0000       2.537535        69.0498 
 254   0.0000       2.543473        69.2114 
 255   0.0000       2.557696        69.5984 
 256   0.0000       2.567298        69.8597 
 257   0.0000       2.582683        70.2784 
 258   0.0000       2.586354        70.3783 
 259   0.0000       2.592937        70.5574 
 260   0.0000       2.610115        71.0248 
 261   0.0000       2.620388        71.3044 
 262   0.0000       2.630912        71.5908 
 263   0.0000       2.642291        71.9004 
 264   0.0000       2.668441        72.6120 
 265   0.0000       2.670884        72.6785 
 266   0.0000       2.700361        73.4806 
 267   0.0000       2.717415        73.9446 
 268   0.0000       2.727862        74.2289 
 269   0.0000       2.741066        74.5882 
 270   0.0000       2.750408        74.8424 
 271   0.0000       2.755836        74.9901 
 272   0.0000       2.778867        75.6168 
 273   0.0000       2.792744        75.9944 
 274   0.0000       2.802015        76.2467 
 275   0.0000       2.805659        76.3459 
 276   0.0000       2.825161        76.8765 
 277   0.0000       2.836767        77.1924 
 278   0.0000       2.851979        77.6063 
 279   0.0000       2.869327        78.0784 
 280   0.0000       2.893324        78.7313 
 281   0.0000       2.898567        78.8740 
 282   0.0000       2.925068        79.5951 
 283   0.0000       2.939801        79.9960 
 284   0.0000       2.989046        81.3361 
 285   0.0000       3.025016        82.3149 
 286   0.0000       3.040885        82.7467 
 287   0.0000       3.069718        83.5313 
 288   0.0000       3.093489        84.1781 
 289   0.0000       3.136172        85.3396 
 290   0.0000       3.173305        86.3500 
 291   0.0000       3.192825        86.8812 
 292   0.0000       3.223311        87.7108 
 293   0.0000       3.235670        88.0470 
 294   0.0000       3.305638        89.9510 
 295   0.0000       3.313219        90.1573 
 296   0.0000       3.338696        90.8505 
 297   0.0000       3.373783        91.8053 
 298   0.0000       3.416764        92.9749 
 299   0.0000       3.420325        93.0718 
 300   0.0000       3.449040        93.8531 
 301   0.0000       3.468322        94.3779 
 302   0.0000       3.481628        94.7399 
 303   0.0000       3.514271        95.6282 
 304   0.0000       3.536687        96.2381 
 305   0.0000       3.548914        96.5708 
 306   0.0000       3.794122       103.2433 
 307   0.0000       3.825385       104.0940 

                    ********************************
                    * MULLIKEN POPULATION ANALYSIS *
                    ********************************

-----------------------
MULLIKEN ATOMIC CHARGES
-----------------------
   0 O :   -0.538296
   1 O :   -0.506961
   2 O :   -0.514393
   3 N :   -0.540059
   4 N :   -0.638392
   5 C :   -0.005478
   6 C :   -0.244965
   7 C :    0.056677
   8 C :    0.208929
   9 C :    0.011770
  10 C :    0.015960
  11 C :   -0.254451
  12 C :   -0.128906
  13 C :    0.320699
  14 C :   -0.177069
  15 C :    0.571802
  16 C :   -0.087241
  17 H :    0.119526
  18 H :    0.127376
  19 H :    0.121305
  20 H :    0.144708
  21 H :    0.304133
  22 H :    0.117143
  23 H :    0.119378
  24 H :    0.105954
  25 H :    0.266101
  26 H :    0.266622
  27 H :    0.371444
  28 H :    0.129727
  29 H :    0.128013
  30 H :    0.128945
Sum of atomic charges:   -0.0000000

--------------------------------
MULLIKEN REDUCED ORBITAL CHARGES
--------------------------------
  0 O s       :     3.860007  s :     3.860007
      pz      :     1.761023  p :     4.649455
      px      :     1.635293
      py      :     1.253139
      dz2     :     0.003918  d :     0.028834
      dxz     :     0.003912
      dyz     :     0.005227
      dx2y2   :     0.006286
      dxy     :     0.009491

  1 O s       :     3.827662  s :     3.827662
      pz      :     1.396460  p :     4.658267
      px      :     1.629528
      py      :     1.632279
      dz2     :     0.003498  d :     0.021033
      dxz     :     0.002924
      dyz     :     0.007279
      dx2y2   :     0.002583
      dxy     :     0.004748

  2 O s       :     3.850329  s :     3.850329
      pz      :     1.697382  p :     4.638490
      px      :     1.556157
      py      :     1.384950
[...]
 8 C  dz2             0.4       0.0
 8 C  dxz             0.1       0.9
 8 C  dyz             0.3       0.0
 8 C  dx2y2           1.0       4.2
 8 C  dxy             2.6       1.8
10 C  s               1.6       0.1
10 C  px              1.0       0.0
10 C  py              0.6       0.1
10 C  dz2             2.7       0.2
10 C  dyz             0.4       0.1
10 C  dx2y2           0.1       0.2
10 C  dxy            15.5       1.3
11 C  s               0.0       0.4
11 C  pz              0.0       0.1
11 C  px              0.1       0.4
11 C  py              0.1       0.4
11 C  dxz             0.1       0.4
11 C  dyz             0.1       1.4
11 C  dx2y2           0.0       0.2
11 C  dxy             0.5       7.9
12 C  s               0.4       0.2
12 C  pz              0.0       0.2
12 C  px              0.1       0.5
12 C  py              0.2       0.7
12 C  dxz             0.5       0.5
12 C  dyz             0.2       1.9
12 C  dx2y2           0.4       0.5
12 C  dxy             1.4      10.1
13 C  dz2             0.0       0.2
13 C  dxz             0.0       0.6
13 C  dx2y2           0.4       3.4
13 C  dxy             0.2       2.6
14 C  s               0.1       0.2
14 C  px              0.2       0.9
14 C  dz2             0.1       0.2
14 C  dxz             0.3       1.0
14 C  dyz             0.1       0.9
14 C  dx2y2           1.4       8.6
14 C  dxy             0.1       2.6
16 C  dxy             0.0       0.1
17 H  pz              0.1       0.0
18 H  px              0.1       0.0
20 H  s               4.6       0.3
20 H  px              5.4       0.1
20 H  py              8.4       0.9
21 H  s               5.7       1.2
21 H  pz              0.9       0.1
21 H  px              1.3       0.1
21 H  py              8.9       2.0
22 H  s               0.2       1.9
22 H  pz              0.0       0.7
22 H  px              0.1       2.1
22 H  py              0.3       3.0
23 H  s               0.3       2.5
23 H  pz              0.1       0.9
23 H  px              0.1       3.0
23 H  py              0.8       3.0
24 H  s               0.4       2.4
24 H  pz              0.1       0.5
24 H  px              1.1       5.9
24 H  py              0.1       0.3
28 H  py              0.0       0.1


                      *****************************
                      * MAYER POPULATION ANALYSIS *
                      *****************************

  NA   - Mulliken gross atomic population
  ZA   - Total nuclear charge
  QA   - Mulliken gross atomic charge
  VA   - Mayer's total valence
  BVA  - Mayer's bonded valence
  FA   - Mayer's free valence

  ATOM       NA         ZA         QA         VA         BVA        FA
  0 O      8.5444     8.0000    -0.5444     1.9514     1.9514    -0.0000
  1 O      8.4913     8.0000    -0.4913     2.0368     2.0368    -0.0000
  2 O      8.5165     8.0000    -0.5165     2.0096     2.0096     0.0000
  3 N      7.5414     7.0000    -0.5414     3.1911     3.1911    -0.0000
  4 N      7.6315     7.0000    -0.6315     2.8208     2.8208    -0.0000
  5 C      5.9940     6.0000     0.0060     3.9303     3.9303     0.0000
  6 C      6.2453     6.0000    -0.2453     3.8638     3.8638     0.0000
  7 C      5.9729     6.0000     0.0271     4.0653     4.0653     0.0000
  8 C      5.7827     6.0000     0.2173     3.8142     3.8142    -0.0000
  9 C      5.9912     6.0000     0.0088     3.8309     3.8309    -0.0000
 10 C      5.9883     6.0000     0.0117     3.7636     3.7636    -0.0000
 11 C      6.2348     6.0000    -0.2348     3.8253     3.8253     0.0000
 12 C      6.1270     6.0000    -0.1270     3.8788     3.8788     0.0000
 13 C      5.6933     6.0000     0.3067     3.8052     3.8052     0.0000
 14 C      6.1739     6.0000    -0.1739     3.9080     3.9080     0.0000
 15 C      5.4298     6.0000     0.5702     3.9241     3.9241     0.0000
 16 C      6.0888     6.0000    -0.0888     3.7919     3.7919     0.0000
 17 H      0.8791     1.0000     0.1209     0.9550     0.9550    -0.0000
 18 H      0.8713     1.0000     0.1287     0.9516     0.9516    -0.0000
 19 H      0.8847     1.0000     0.1153     0.9511     0.9511    -0.0000
 20 H      0.8592     1.0000     0.1408     0.9532     0.9532     0.0000
 21 H      0.6918     1.0000     0.3082     0.8978     0.8978     0.0000
 22 H      0.8822     1.0000     0.1178     0.9755     0.9755     0.0000
 23 H      0.8811     1.0000     0.1189     0.9536     0.9536    -0.0000
 24 H      0.8939     1.0000     0.1061     0.9621     0.9621     0.0000
 25 H      0.7307     1.0000     0.2693     0.9062     0.9062    -0.0000
 26 H      0.7284     1.0000     0.2716     0.9077     0.9077    -0.0000
 27 H      0.6324     1.0000     0.3676     0.8806     0.8806     0.0000
 28 H      0.8674     1.0000     0.1326     0.9523     0.9523    -0.0000
 29 H      0.8763     1.0000     0.1237     0.9548     0.9548     0.0000
 30 H      0.8745     1.0000     0.1255     0.9480     0.9480     0.0000

  Mayer bond orders larger than 0.100000
B(  0-O , 13-C ) :   0.9172 B(  0-O , 16-C ) :   0.9028 B(  1-O , 15-C ) :   1.1147 
B(  1-O , 27-H ) :   0.8254 B(  2-O , 15-C ) :   1.8414 B(  3-N ,  8-C ) :   1.0285 
B(  3-N , 10-C ) :   1.1153 B(  3-N , 21-H ) :   0.8744 B(  4-N ,  9-C ) :   0.9965 
B(  4-N , 25-H ) :   0.8985 B(  4-N , 26-H ) :   0.8947 B(  5-C ,  6-C ) :   1.0002 
B(  5-C ,  7-C ) :   1.2709 B(  5-C , 10-C ) :   1.5346 B(  6-C ,  9-C ) :   0.9598 
B(  6-C , 17-H ) :   0.9328 B(  6-C , 18-H ) :   0.9372 B(  7-C ,  8-C ) :   1.2945 
B(  7-C , 11-C ) :   1.3020 B(  8-C , 12-C ) :   1.3434 B(  9-C , 15-C ) :   0.9266 
B(  9-C , 19-H ) :   0.9310 B( 10-C , 20-H ) :   0.9384 B( 11-C , 13-C ) :   1.4135 
B( 11-C , 22-H ) :   0.9100 B( 12-C , 14-C ) :   1.4867 B( 12-C , 23-H ) :   0.9321 
B( 13-C , 14-C ) :   1.3208 B( 14-C , 24-H ) :   0.9330 B( 16-C , 28-H ) :   0.9617 
B( 16-C , 29-H ) :   0.9420 B( 16-C , 30-H ) :   0.9449 

-------
TIMINGS
-------

Total SCF time: 0 days 0 hours 1 min 40 sec 

Total time                  ....     100.880 sec
Sum of individual times     ....      95.410 sec  ( 94.6%)

SCF preparation             ....       0.990 sec  (  1.0%)
Fock matrix formation       ....      93.260 sec  ( 92.4%)
  Startup                   ....       0.012 sec  (  0.0% of F)
  Split-RI-J                ....       7.148 sec  (  7.7% of F)
  Chain of spheres X        ....      74.457 sec  ( 79.8% of F)
  XC integration            ....       9.039 sec  (  9.7% of F)
    XC Preparation          ....       0.000 sec  (  0.0% of XC)
    Basis function eval.    ....       3.404 sec  ( 37.7% of XC)
    Density eval.           ....       2.445 sec  ( 27.1% of XC)
    XC-Functional eval.     ....       0.376 sec  (  4.2% of XC)
    XC-Potential eval.      ....       2.215 sec  ( 24.5% of XC)
  CPCM terms                ....       7.878 sec  (  8.4% of F)
Diagonalization             ....       0.000 sec  (  0.0%)
Density matrix formation    ....       0.047 sec  (  0.0%)
Total Energy calculation    ....       0.024 sec  (  0.0%)
Population analysis         ....       0.619 sec  (  0.6%)
Orbital Transformation      ....       0.070 sec  (  0.1%)
Orbital Orthonormalization  ....       0.000 sec  (  0.0%)
DIIS solution               ....       0.300 sec  (  0.3%)
  MO trafo                  ....       0.033 sec  ( 11.0 % of DIIS)
  Orb grad                  ....       0.000 sec  (  0.0 % of DIIS)
  Energy W gradient         ....       0.000 sec  (  0.0 % of DIIS)
  DIIS error                ....       0.060 sec  ( 20.0 % of DIIS)
  DIIS work                 ....       0.164 sec  ( 54.7 % of DIIS)
  Form Q                    ....       0.000 sec  (  0.0 % of DIIS)
  Form QpQm                 ....       0.000 sec  (  0.0 % of DIIS)
  Exp/Cayley                ....       0.000 sec  (  0.0 % of DIIS)
  Orb update                ....       0.000 sec  (  0.0 % of DIIS)
  Wake-sleep                ....       0.008 sec  (  2.7 % of DIIS)
SOSCF solution              ....       0.100 sec  (  0.1%)
  MO trafo                  ....       0.054 sec  ( 54.1 % of SOSCF)
  Orb grad                  ....       0.002 sec  (  2.3 % of SOSCF)
  Rot update                ....       0.004 sec  (  3.8 % of SOSCF)
  Step                      ....       0.035 sec  ( 34.7 % of SOSCF)
Finished LeanSCF after 101.2 sec

Maximum memory used throughout the entire LEANSCF-calculation: 60.2 MB


-------------------------------------------------------------------------------
                          DFT DISPERSION CORRECTION                            
                                                                               
                              DFTD3 V3.1  Rev 1                                
                          USING Becke-Johnson damping                          
-------------------------------------------------------------------------------
The B3LYP functional is recognized
Active option DFTDOPT                   ...         4   

molecular C6(AA) [au] = 9928.296441 


            DFT-D V3
 parameters
 s6 scaling factor         :     1.0000 
 a1 scaling factor         :     0.3981 
 s8 scaling factor         :     1.9889 
 a2 scaling factor         :     4.4211 
 ad hoc parameters k1-k3   :    16.0000     1.3333    -4.0000 

 Edisp/kcal,au: -39.580742346736  -0.063075921178 
 E6   /kcal   : -18.852294920 
 E8   /kcal   : -20.728447427 
 % E8         :  52.370031985 

-------------------------   ----------------
Dispersion correction           -0.063075921
-------------------------   ----------------


-------------------------   --------------------
FINAL SINGLE POINT ENERGY      -800.518784986834
-------------------------   --------------------

                                *** OPTIMIZATION RUN DONE ***



           ************************************************************
           *        Program running with 2 parallel MPI-processes     *
           *              working on a common directory               *
           ************************************************************

------------------------------------------------------------------------------
                              ORCA PROPERTY CALCULATIONS
------------------------------------------------------------------------------

GBWName                                 ... /kaggle/working/Trp-OMe-1/Trp-OMe_InterFrag.gbw
Number of atoms                         ...     31
Number of basis functions               ...    308
Max core memory                         ...   3000 MB

Electric properties:
Dipole moment                           ... YES
Quadrupole moment                       ...  NO
Static polarizability (Dipole/Dipole)   ...  NO
Static polarizability (Dipole/Quad.)    ...  NO
Static polarizability (Quad./Quad.)     ...  NO
Static polarizability (Velocity)        ...  NO
Static hyperpolarizability              ...  NO

Atomic electric properties:
Dipole moment                           ...  NO
Quadrupole moment                       ...  NO
Static polarizability                   ...  NO

Choice of electric origin               ... Center of mass
Position of electric origin             ...     0.122368    -0.141692    -0.018674

General magnetic properties:
Magnetizability                         ...  NO

EPR properties:
g-Tensor (aka g-matrix)                 ...  NO
Zero-Field splitting spin-orbit         ...  NO
Zero-field splitting spin-spin          ...  NO
Hyperfine couplings                     ...  NO (   0 nuclei)
Quadrupole couplings                    ...  NO (   0 nuclei)
Contact density                         ...  NO (   0 nuclei)

NMR properties:
Chemical shifts                         ...  NO (   0 nuclei)
Spin-rotation constants                 ...  NO (   0 nuclei)
Spin-spin couplings                     ...  NO (   0 nuclei,    0 pairs)

Choice of magnetic origin               ... GIAO
Position of magnetic origin             ...     0.000000     0.000000     0.000000

Properties with geometric perturbations:
SCF Hessian                             ...  NO
IR spectrum                             ...  NO
VCD spectrum                            ...  NO
X-ray spectroscopy properties:
SCF XES/XAS/RIXS spectra                ...  NO

SCF SOC stabilization energy            ...  NO
Diagonal Born-Oppenheimer correction    ...  NO

-------------
DIPOLE MOMENT
-------------

Method             : SCF
Type of density    : Electron Density
Multiplicity       :   1
Irrep              :   0
Energy             :  -800.4557090656556966 Eh
Basis              : AO
                                X                 Y                 Z
Electronic contribution:     -3.310263500       3.755075019       3.315390846
Nuclear contribution   :      4.142461603      -1.538455100      -2.497329555
                        -----------------------------------------
Total Dipole Moment    :      0.832198103       2.216619919       0.818061291
                        -----------------------------------------
Magnitude (a.u.)       :      2.505031302
Magnitude (Debye)      :      6.367283553



--------------------
Rotational spectrum 
--------------------
 
Rotational constants in cm-1:             0.020892             0.013429             0.009196 
Rotational constants in MHz :           626.315563           402.592586           275.681454 

Dipole components along the rotational axes: 
x,y,z [a.u.] :     0.875264    -2.188861     0.847338 
x,y,z [Debye]:     2.224743    -5.563643     2.153763 

 

Dipole moment calculation done in   0.0 sec 

Maximum memory used throughout the entire PROP-calculation: 20.1 MB

--------------------------------
SUGGESTED CITATIONS FOR THIS RUN
--------------------------------

Below you find a list of papers that are relevant to this ORCA run
We neither can nor want to force you to cite these papers, but we appreciate if you do
You receive ORCA, which is the product of decades of hard work by many enthusiastic individuals, for free
The only thing we kindly ask in return is that you cite our papers,
We deeply appreciate it, if you show your appreciation for ORCA by not just citing the generic ORCA reference.

Please note that relegating all ORCA citations to the supporting information does *not* help us.
SI sections are not indexed - citations you put there will not count into any citation statistics
But we need these citations in order to attract the funding resources that allow us to do what we are doing

Therefore, if you are a happy ORCA user, please consider citing a few of the papers listed below in the main body of your paper

In addition to the list printed below, the program has created the file /kaggle/working/Trp-OMe-1/Trp-OMe_InterFrag.bibtex that contains the list in bibtex format
You can import this file easily into all common literature databanks and citation aid programs

It goes without saying that in many instances, there are alternative algorithms to achieve similar
results as the ones you have gotten from ORCA. It is, of course, also the case that in some instances
ORCA just re-implements algorithms worked out by others. We are fully aware of that and we are also
fully appreciative of our colleagues work. Hence this citation list should not be read as indicating
that the listed papers, which are focused on our own work, are the only ones worth citing. It simply
meant to make it easier for users to cite ORCA specific papers. It is not a substitute for doing your
own literature research and citing the relevant literature in a scientifically appropriate manner.

List of essential papers. We consider these as the minimum necessary citations

  1. Neese, F.
     Software update: the ORCA program system, version 6.0
     WIRES Comput. Molec. Sci. 2025 15(1), e70019
     doi.org/10.1002/wcms.70019

List of papers to cite with high priority. The work reported in these papers was absolutely
necessary for this run to complete.
Our perspective: the developers of density functionals and basis sets usually get cited in chemistry papers
Good! But without the algorithms to do something with them, the functionals or basis sets would not do anything.
Hence, in our opinion, the algorithm design and method developments papers are equally worthy of getting cited

  1. Neese, F.
     An improvement of the resolution of the identity approximation for the formation of the Coulomb matrix
     J. Comp. Chem. 2003 24(14), 1740-1747
     doi.org/10.1002/jcc.10318
  2. Neese, F.; Wennmohs, F.; Hansen, A.; Becker, U.
     Efficient, approximate and parallel Hartree-Fock and hybrid DFT calculations. A 'chain-of-spheres' algorithm for the Hartree-Fock exchange
     Chem. Phys. 2009 356(1-3), 98-109
     doi.org/10.1016/j.chemphys.2008.10.036
  3. Grimme, S.; Antony, J.; Ehrlich, S.; Krieg, H.
     A consistent and accurate ab initio parametrization of density functional dispersion correction (DFT-D) for the 94 elements H-Pu
     J. Chem. Phys. 2010 132 , 154104
     doi.org/10.1063/1.3382344
  4. Grimme, S.; Ehrlich, S.; Goerigk, L.
     Effect of the damping function in dispersion corrected density functional theory
     J. Comput. Chem. 2011 32(7), 1456-1465
     doi.org/10.1002/jcc.21759
  5. Garcia-Rates, M.; Neese, F.
     Effect of the Solute Cavity on the Solvation Energy and its Derivatives within the Framework of the Gaussian Charge Scheme
     J. Comput. Chem. 2020 41 , 922-939
     doi.org/10.1002/jcc.26139
  6. Helmich-Paris, B.; de Souza, B.; Neese, F.; Izsák, R.
     An improved chain of spheres for exchange algorithm
     J. Chem. Phys. 2021 155(10), 104109
     doi.org/10.1063/5.0058766
  7. Neese, F.
     The SHARK Integral Generation and Digestion System
     J. Comp. Chem. 2022 44(3), 381
     doi.org/10.1002/jcc.26942

List of suggested additional citations. These are papers that are important in the 'surrounding' of 
of this run, or papers that preceded the highly important papers. If you like your results we are grateful for a citation.

  1. Izsak, R.; Neese, F.
     An overlap fitted chain of spheres exchange method
     J. Chem. Phys. 2011 135 , 144105
     doi.org/10.1063/1.3646921
  2. Izsak, R.; Hansen, A.; Neese, F.
     The resolution of identity and chain of spheres approximations for the LPNO-CCSD singles Fock term
     Molec. Phys. 2012 110 , 2413-2417
     doi.org/10.1080/00268976.2012.687466
  3. Neese, F.
     The ORCA program system
     WIRES Comput. Molec. Sci. 2012 2(1), 73-78
     doi.org/10.1002/wcms.81
  4. Izsak, R.; Neese, F.; Klopper, W.
     Robust fitting techniques in the chain of spheres approximation to the Fock exchange: The role of the complementary space
     J. Chem. Phys. 2013 139 , 
     doi.org/10.1063/1.4819264
  5. Neese, F.
     Software update: the ORCA program system, version 4.0
     WIRES Comput. Molec. Sci. 2018 8(1), 1-6
     doi.org/10.1002/wcms.1327
  6. Neese, F.; Wennmohs, F.; Becker, U.; Riplinger, C.
     The ORCA quantum chemistry program package
     J. Chem. Phys. 2020 152(22), 224108
     doi.org/10.1063/5.0004608
  7. Neese, F.
     Software update: The ORCA program system—Version 5.0
     WIRES Comput. Molec. Sci. 2022 12(1), e1606
     doi.org/10.1002/wcms.1606

List of optional additional citations

  1. Neese, F.
     Approximate second-order SCF convergence for spin unrestricted wavefunctions
     Chem. Phys. Lett. 2000 325(1-3), 93-98
     doi.org/10.1016/s0009-2614(00)00662-x

Timings for individual modules:

Sum of individual times          ...     2652.978 sec (=  44.216 min)
Startup calculation              ...       70.792 sec (=   1.180 min)   2.7 %
SCF iterations                   ...     1628.587 sec (=  27.143 min)  61.4 %
Property calculations            ...        0.506 sec (=   0.008 min)   0.0 %
SCF Gradient evaluation          ...      952.906 sec (=  15.882 min)  35.9 %
Geometry relaxation              ...        0.186 sec (=   0.003 min)   0.0 %
                             ****ORCA TERMINATED NORMALLY****
TOTAL RUN TIME: 0 days 0 hours 44 minutes 20 seconds 614 msec
