
                                 *****************
                                 * O   R   C   A *
                                 *****************

                                            #,                                       
                                            ###                                      
                                            ####                                     
                                            #####                                    
                                            ######                                   
                                           ########,                                 
                                     ,,################,,,,,                         
                               ,,#################################,,                 
                          ,,##########################################,,             
                       ,#########################################, ''#####,          
                    ,#############################################,,   '####,        
                  ,##################################################,,,,####,       
                ,###########''''           ''''###############################       
              ,#####''   ,,,,##########,,,,          '''####'''          '####       
            ,##' ,,,,###########################,,,                        '##       
           ' ,,###''''                  '''############,,,                           
         ,,##''                                '''############,,,,        ,,,,,,###''
      ,#''                                            '''#######################'''  
     '                                                          ''''####''''         
             ,#######,   #######,   ,#######,      ##                                
            ,#'     '#,  ##    ##  ,#'     '#,    #''#        ,####,    ,#,          
            ##       ##  ##   ,#'  ##            #'  '#       #'       ,# #          
            ##       ##  #######   ##           ,######,      #####,      #          
            '#,     ,#'  ##    ##  '#,     ,#' ,#      #,     #,   #      #          
             '#######'   ##     ##  '#######'  #'      '#     '####' #    #          



                #########################################################
                #                        -***-                          #
                #          Department of theory and spectroscopy        #
                #                                                       #
                #                      Frank Neese                      #
                #                                                       #
                #     Directorship, Architecture, Infrastructure        #
                #                    SHARK, DRIVERS                     #
                #        Core code/Algorithms in most modules           #
                #                                                       #
                #        Max Planck Institute fuer Kohlenforschung      #
                #                Kaiser Wilhelm Platz 1                 #
                #                 D-45470 Muelheim/Ruhr                 #
                #                      Germany                          #
                #                                                       #
                #                  All rights reserved                  #
                #                        -***-                          #
                #########################################################


                         Program Version 6.1.1  -  RELEASE   -
                                (GIT: $487d211c$)
                          ($2025-11-21 10:33:24 +0100$)
                                                                         
                                  - NO-DMRG VERSION -                    
                                                                         


 With contributions from (in alphabetic order):
[Max-Planck-Institut fuer Kohlenforschung]                               
  Daniel Aravena         : Magnetic Suceptibility                        
  Michael Atanasov       : Ab Initio Ligand Field Theory (pilot matlab implementation)
  Alexander A. Auer      : GIAO ZORA, VPT2 properties, NMR spectrum      
  Ute Becker             : All parallelization in ORCA, NUMFREQ, NUMCALC 
  Giovanni Bistoni       : ED, misc. LED, open-shell LED, HFLD           
  Dmytro Bykov           : pre 5.0 version of the SCF Hessian            
  Marcos Casanova-Páez   : Triplet and SCS-CIS(D). UHF-(DLPNO)-IP/EA/STEOM-CCSD. UHF-CVS-IP/STEOM-CCSD   
  Vijay G. Chilkuri      : MRCI spin determinant printing, contributions to CSF-ICE 
  Pauline Colinet        : FMM embedding                                 
  Dipayan Datta          : RHF DLPNO-CCSD density                        
  Achintya Kumar Dutta   : EOM-CC, STEOM-CC                              
  Nicolas Foglia         : Exact transition moments, OPA infrastructure, MCD improvements    
  Dmitry Ganyushin       : Spin-Orbit,Spin-Spin,Magnetic field MRCI      
  Miquel Garcia-Rates    : C-PCM and meta-GGA Hessian, CCSD/C-PCM, Gaussian charge scheme 
  Tiago L. C. Gouveia    : GS-ROHF, GS-ROCIS                             
  Yang Guo               : DLPNO-NEVPT2, F12-NEVPT2, CIM, IAO-localization        
  Andreas Hansen         : Spin unrestricted coupled pair/coupled cluster methods 
  Ingolf Harden          : AUTO-CI MPn and infrastructure                
  Benjamin Helmich-Paris : MC-RPA, TRAH-(SCF,CASSCF), AVAS, COSX integrals, SCF dyn. polar., MC-PDFT, srDFT 
  Lee Huntington         : MR-EOM, pCC                                   
  Robert Izsak           : Overlap fitted RIJCOSX, COSX-SCS-MP3, EOM     
  Riya Kayal             : Wick's Theorem for AUTO-CI, AUTO-CI UHF-CCSDT 
  Emily Kempfer          : AUTO-CI RHF CISDT and CCSDT, approximate NEVPT4
  Christian Kollmar      : KDIIS, OOCD, Brueckner-CCSD(T), CCSD density, CASPT2, CASPT2-K, improved NEVPT2 
  Axel Koslowski         : Symmetry handling                             
  Simone Kossmann        : meta-GGA functionals, TD-DFT gradient, OOMP2, (MP2 Hessian; deprecated post 5.0) 
  Lucas Lang             : DCDCAS, Hyperfine gauge corrections, ICE-SOC+SSC
  Marvin Lechner         : AUTO-CI (C++ implementation), FIC-MRCC        
  Spencer Leger          : CASSCF response                               
  Dagmar Lenk            : GEPOL surface, SMD, ORCA-2-JSON               
  Dimitrios Liakos       : Extrapolation schemes; Compound Job, Property file
  Dimitrios Manganas     : Further ROCIS development; embedding schemes. LFT, Crystal Embedding 
  Dimitrios Pantazis     : SARC Basis sets                               
  Anastasios Papadopoulos: AUTO-CI, single reference methods and gradients 
  Taras Petrenko         : pre 6.0 DFT Hessian and TD-DFT gradient,  ECA, NRVS 
  Petra Pikulova         : Analytic Raman intensities                    
  Peter Pinski           : DLPNO-MP2, DLPNO-MP2 Gradient                 
  Shashank Vittal Rao    : ES-AILFT, MagRelax                            
  Christoph Reimann      : Effective Core Potentials                     
  Marius Retegan         : Local ZFS, SOC                                
  Christoph Riplinger    : Optimizer, TS searches, QM/MM, DLPNO-CCSD(T), (RO)-DLPNO pert. Triples 
  Michael Roemelt        : Original ROCIS implementation, recursive CI coupling coefficients
  Masaaki Saitow         : Open-shell DLPNO-CCSD energy and density      
  Barbara Sandhoefer     : DKH picture change effects                    
  Yorick L. A. Schmerwitz: GMF and freeze-and-release deltaSCF, NEB S-IDPP initial path                    
  Kantharuban Sivalingam : CASSCF convergence/infrastructure, NEVPT2, NEVPT3, NEVPT4(SD), FIC-MRCI and CEPA variants
  Bernardo de Souza      : ESD, SOC TD-DFT                               
  Georgi L. Stoychev     : AutoAux, RI-MP2 NMR, DLPNO-MP2 response, X2C  
  Van Anh Tran           : RI-MP2 g-tensors                              
  Willem Van den Heuvel  : Paramagnetic NMR                              
  Zikuan Wang            : NOTCH, Electric field optimization            
  Frank Wennmohs         : Technical directorship and infrastructure     
  Hang Xu                : AUTO-CI-Response properties                   
                                                                         
[FACCTs GmbH]                                                            
  Markus Bursch, Nicolas Foglia, Miquel Garcia-Rates, Ingolf Harden, Hagen Neugebauer, Anastasios Papadopoulos, 
  Christoph Riplinger, Bernardo de Souza, Georgi L. Stoychev                                                    
                                                                 
  APM, various basis sets, CI-OPT, improved COSX, DLPNO-Multilevel,           
  DOCKER, DRACO, updates on ESD, Fragmentator, GOAT, IRC, LR-CPCM, L-BFGS, MBIS, meta-GGA TD-DFT gradient, ML-optimized integration grids, 
  MM, NACMEs, nearIR, NEB, NEB-TS, NL-DFT gradient (VV10), 2- and 3-layer-ONIOM, interface openCOSMO-RS, QMMM,   
  Crystal-QMMM, RESP, rigid body optimization, SF, symmetry and pop. for TD-DFT, various functionals, SOLVATOR                                   
                                                                         
[Other institutions]                                                     
  V. Asgeirsson          : NEB                                           
  Christoph Bannwarth    : sTDA-DFT, sTD-DFT, PBEh-3c, B97-3c, D3        
  Giovanni Bistoni       : ETS/NOCV, ADLD/ADEX, COVALED                  
  Martin Brehm           : Molecular dynamics                            
  Ronald Cardenas        : ETS/NOCV                                      
  Martina Colucci        : COVALED                                       
  Sebastian Ehlert       : rSCAN, r2SCAN, r2SCAN-3c, D4, dhf basis sets  
  Marvin Friede          : D4 for Fr, Ra, Ac-Lr                          
  Lars Goerigk           : TD-DFT with DH, B97 family of functionals     
  Stefan Grimme          : VdW corrections, initial TS optimization, DFT functionals, gCP, sTDA/sTD-DF 
  Waldemar Hujo          : DFT-NL                                        
  H. Jonsson             : NEB                                           
  Holger Kruse           : gCP                                           
  Marcel Mueller         : wB97X-3c, vDZP basis set                      
  Hagen Neugebauer       : wr2SCAN, Native XTB                           
  Gianluca Regni         : ADLD/ADEX                                     
  Tobias Risthaus        : pre 6.0 range-separated hybrid DFT and stability analysis
  Lukas Wittmann         : regularized MP2, r2SCAN double-hybrids, wr2SCAN        
                                                                         
We gratefully acknowledge several colleagues who have allowed us to      
interface, adapt or use parts of their codes:                            
  Ed Valeev, F. Pavosevic, A. Kumar             : LibInt (2-el integral package), F12 methods 
  Garnet Chan, S. Sharma, J. Yang, R. Olivares  : DMRG                   
  Ulf Ekstrom                                   : XCFun DFT Library      
  Mihaly Kallay                                 : mrcc  (arbitrary order and MRCC methods)
  Frank Weinhold                                : gennbo (NPA and NBO analysis)           
  Simon Mueller                                 : openCOSMO-RS                            
  Christopher J. Cramer and Donald G. Truhlar   : smd solvation model                     
  S Lehtola, MJT Oliveira, MAL Marques          : LibXC Library                           
  Liviu Ungur et al                             : ANISO software                          


 Your calculation uses the libint2 library for the computation of 2-el integrals
 For citations please refer to: http://libint.valeyev.net

 Your ORCA version has been built with support for libXC version: 7.0.0
 For citations please refer to: https://libxc.gitlab.io

 This ORCA versions uses:
   CBLAS   interface :  Fast vector & matrix operations
   LAPACKE interface :  Fast linear algebra routines
   SCALAPACK package :  Parallel linear algebra routines
   Shared memory     :  Shared parallel matrices
   BLAS/LAPACK       :  OpenBLAS 0.3.29  USE64BITINT DYNAMIC_ARCH NO_AFFINITY Haswell SINGLE_THREADED
        Core in use  :  Haswell
   Copyright (c) 2011-2014, The OpenBLAS Project


  ***********************************
  * Starting time: Sat Mar 28 20:42:20 2026
  * Host name:     2f7b0cb3d232
  * Process ID:    874
  * Working dir.:  /kaggle/working
  ***********************************

NOTE: MaxCore=3000 MB was set to SCF,MP2,MDCI,CIPSI,MRCI,RASCI and CIS
      => If you want to overwrite this, your respective input block should be placed after the MaxCore statement
Your calculation utilizes the atom-pairwise dispersion correction
with the Becke-Johnson damping scheme (D3BJ)


Warning: RI is on but no J-basis has been assigned. Assigning Def2/J (nothing to worry about!)
================================================================================

----- Orbital basis set information -----
Your calculation utilizes the basis: 6-31G(d,p)
   H-He, Li-Ne : W. J. Hehre, R. Ditchfield and J.A. Pople, J. Chem. Phys. 56, 2257 (1972).
                 Note: He and Ne are unpublished basis sets taken from the Gaussian program.
                 Note: Li and B from J. D. Dill and J. A. Pople, J. Chem. Phys. 62, 2921 (1975).
   Na - Ar     : M. M. Francl, W. J. Pietro, W. J. Hehre, J. S. Binkley, M. S. Gordon, 
                 D. J. DeFrees and J. A. Pople, J. Chem. Phys. 77, 3654 (1982).
   K - Zn      : V. A. Rassolov, J. A. Pople, M. A. Ratner, and T. L. Windus, J. Chem. Phys. 109, 1223 (1998).

----- AuxJ basis set information -----
Your calculation utilizes the auxiliary basis: def2/J
   H-Rn: F. Weigend, Phys. Chem. Chem. Phys. 8, 1057 (2006).
   Fr-Lr: K. Eichkorn, F. Weigend, O. Treutler, R. Ahlrichs; Theor. Chem. Acc. 97, 119 (1997).

================================================================================
                                        WARNINGS
                       Please study these warnings very carefully!
================================================================================


================================================================================
                                       INPUT FILE
================================================================================
NAME = /kaggle/working/Trp-OMe-2/Trp-OMe_InterFrag.inp
|  1> 
|  2> !RKS B3LYP 6-31G(d,p) TightSCF D3BJ # def2-TZVPP
|  3> 
|  4> %pal nprocs 2 end
|  5> %maxcore 3000
|  6> 
|  7> %elprop
|  8>   Polar 1      # polarizability via CP-SCF
|  9> end
| 10> 
| 11> %output
| 12>   PrintLevel Normal
| 13>   Print[ P_OrbEn ] 2
| 14> end
| 15> 
| 16> *xyz 0 1
| 17>   O     -2.814387   -2.149278   -0.144817
| 18>   O      1.559870   -0.729709    1.783480
| 19>   O      1.986223   -2.241129    0.167782
| 20>   N     -0.627121    2.901563    0.188868
| 21>   N      4.113315   -0.553694   -0.659690
| 22>   C      0.795192    1.338408   -0.613820
| 23>   C      2.039007    0.674424   -1.120854
| 24>   C     -0.475666    0.712202   -0.345727
| 25>   C     -1.342572    1.719766    0.156795
| 26>   C      2.914264    0.003048   -0.028795
| 27>   C      0.650522    2.666499   -0.273802
| 28>   C     -0.943638   -0.611232   -0.477415
| 29>   C     -2.661739    1.435319    0.529772
| 30>   C     -2.249377   -0.889603   -0.090549
| 31>   C     -3.103713    0.125850    0.404290
| 32>   C      2.129094   -1.118833    0.627568
| 33>   C     -1.972902   -3.215647   -0.580150
| 34>   H      1.792947   -0.091234   -1.865395
| 35>   H      2.678917    1.413901   -1.615114
| 36>   H      3.121959    0.754108    0.744295
| 37>   H      1.369693    3.471932   -0.328864
| 38>   H     -0.986268    3.798247    0.482035
| 39>   H     -0.288465   -1.383723   -0.857779
| 40>   H     -3.318823    2.210374    0.912292
| 41>   H     -4.115127   -0.145818    0.689020
| 42>   H      4.732482   -0.903828    0.069765
| 43>   H      4.612487    0.220932   -1.093697
| 44>   H      1.003765   -1.462488    2.107034
| 45>   H     -2.570826   -4.125249   -0.503376
| 46>   H     -1.082654   -3.307686    0.054212
| 47>   H     -1.656258   -3.076524   -1.620966
| 48> 
| 49> *
| 50> 
| 51>                          ****END OF INPUT****
================================================================================

                       ****************************
                       * Single Point Calculation *
                       ****************************

---------------------------------
CARTESIAN COORDINATES (ANGSTROEM)
---------------------------------
  O     -2.814387   -2.149278   -0.144817
  O      1.559870   -0.729709    1.783480
  O      1.986223   -2.241129    0.167782
  N     -0.627121    2.901563    0.188868
  N      4.113315   -0.553694   -0.659690
  C      0.795192    1.338408   -0.613820
  C      2.039007    0.674424   -1.120854
  C     -0.475666    0.712202   -0.345727
  C     -1.342572    1.719766    0.156795
  C      2.914264    0.003048   -0.028795
  C      0.650522    2.666499   -0.273802
  C     -0.943638   -0.611232   -0.477415
  C     -2.661739    1.435319    0.529772
  C     -2.249377   -0.889603   -0.090549
  C     -3.103713    0.125850    0.404290
  C      2.129094   -1.118833    0.627568
  C     -1.972902   -3.215647   -0.580150
  H      1.792947   -0.091234   -1.865395
  H      2.678917    1.413901   -1.615114
  H      3.121959    0.754108    0.744295
  H      1.369693    3.471932   -0.328864
  H     -0.986268    3.798247    0.482035
  H     -0.288465   -1.383723   -0.857779
  H     -3.318823    2.210374    0.912292
  H     -4.115127   -0.145818    0.689020
  H      4.732482   -0.903828    0.069765
  H      4.612487    0.220932   -1.093697
  H      1.003765   -1.462488    2.107034
  H     -2.570826   -4.125249   -0.503376
  H     -1.082654   -3.307686    0.054212
  H     -1.656258   -3.076524   -1.620966

----------------------------
CARTESIAN COORDINATES (A.U.)
----------------------------
  NO LB      ZA    FRAG     MASS         X           Y           Z
   0 O     8.0000    0    15.999   -5.318421   -4.061547   -0.273664
   1 O     8.0000    0    15.999    2.947727   -1.378950    3.370289
   2 O     8.0000    0    15.999    3.753418   -4.235120    0.317062
   3 N     7.0000    0    14.007   -1.185087    5.483159    0.356909
   4 N     7.0000    0    14.007    7.773039   -1.046330   -1.246633
   5 C     6.0000    0    12.011    1.502695    2.529225   -1.159952
   6 C     6.0000    0    12.011    3.853165    1.274477   -2.118107
   7 C     6.0000    0    12.011   -0.898878    1.345867   -0.653329
   8 C     6.0000    0    12.011   -2.537093    3.249887    0.296300
   9 C     6.0000    0    12.011    5.507161    0.005760   -0.054415
  10 C     6.0000    0    12.011    1.229308    5.038953   -0.517411
  11 C     6.0000    0    12.011   -1.783217   -1.155061   -0.902184
  12 C     6.0000    0    12.011   -5.029958    2.712360    1.001124
  13 C     6.0000    0    12.011   -4.250707   -1.681106   -0.171113
  14 C     6.0000    0    12.011   -5.865168    0.237822    0.763997
  15 C     6.0000    0    12.011    4.023405   -2.114288    1.185932
  16 C     6.0000    0    12.011   -3.728244   -6.076692   -1.096325
  17 H     1.0000    0     1.008    3.388179   -0.172407   -3.525086
  18 H     1.0000    0     1.008    5.062419    2.671886   -3.052123
  19 H     1.0000    0     1.008    5.899648    1.425058    1.406514
  20 H     1.0000    0     1.008    2.588345    6.561001   -0.621463
  21 H     1.0000    0     1.008   -1.863776    7.177647    0.910914
  22 H     1.0000    0     1.008   -0.545120   -2.614858   -1.620967
  23 H     1.0000    0     1.008   -6.271667    4.177002    1.723982
  24 H     1.0000    0     1.008   -7.776463   -0.275556    1.302059
  25 H     1.0000    0     1.008    8.943095   -1.707987    0.131837
  26 H     1.0000    0     1.008    8.716337    0.417501   -2.066788
  27 H     1.0000    0     1.008    1.896841   -2.763702    3.981717
  28 H     1.0000    0     1.008   -4.858157   -7.795591   -0.951243
  29 H     1.0000    0     1.008   -2.045920   -6.250621    0.102446
  30 H     1.0000    0     1.008   -3.129874   -5.813788   -3.063182

--------------------------------
INTERNAL COORDINATES (ANGSTROEM)
--------------------------------
 O      0   0   0     0.000000000000     0.00000000     0.00000000
 O      1   0   0     4.986745408382     0.00000000     0.00000000
 O      2   1   0     2.253141656491    72.40667576     0.00000000
 N      2   1   3     4.529001369243    70.64127051   122.02673910
 N      3   2   1     2.838426882355    87.25226172   137.26723628
 C      4   2   1     2.260693665523    42.84592117   272.25940527
 C      6   4   2     1.498343746821   161.59304217   254.14718550
 C      6   4   2     1.441904250375    71.32240628    69.76041954
 C      4   2   1     1.381862134925    64.68990074     5.95318520
 C      5   3   2     1.464825401265    59.13416767   330.10350763
 C      6   4   2     1.378538121890    34.94039701   249.68019129
 C      8   6   4     1.409899668233   133.06561131   180.63343129
 C      9   4   2     1.400079823520   130.94927164   134.48921201
 C      1   2   3     1.381652062405    50.69593076   239.81093096
 C     13   9   4     1.387730453280   117.88510816   181.14751826
 C      3   2   1     1.221213986185    30.19538472   121.23022696
 C      1   2   3     1.426448271153    79.24321049    18.44635902
 H      7   6   4     1.095955746025   110.67730827   212.92235385
 H      7   6   4     1.095720762434   109.77800115   331.09356648
 H     10   5   3     1.097677769077   114.11137001   134.87797983
 H     11   6   4     1.081185029759   129.44412292   180.11985573
 H      4   2   1     1.009443239293   141.42281442   122.05373599
 H     12   8   6     1.081975405222   120.13406953   359.35749472
 H     13   9   4     1.085721505028   121.26883077     0.70735514
 H     15  13   9     1.085280127211   120.61661202   179.43825538
 H      5   3   2     1.018855332650    92.42956769    80.43358300
 H      5   3   2     1.018616807985   160.65578130   281.61812894
 H      2   1   3     0.975143591879    54.13692188   268.60263109
 H     17   1   2     1.091230111047   106.16673733   141.91478858
 H     17   1   2     1.097008580672   111.40591813    22.75742520
 H     17   1   2     1.096775536617   111.41372410   260.83081841

---------------------------
INTERNAL COORDINATES (A.U.)
---------------------------
 O      0   0   0     0.000000000000     0.00000000     0.00000000
 O      1   0   0     9.423583121431     0.00000000     0.00000000
 O      2   1   0     4.257820671697    72.40667576     0.00000000
 N      2   1   3     8.558572248024    70.64127051   122.02673910
 N      3   2   1     5.363849458810    87.25226172   137.26723628
 C      4   2   1     4.272091900530    42.84592117   272.25940527
 C      6   4   2     2.831459335965   161.59304217   254.14718550
 C      6   4   2     2.724804144545    71.32240628    69.76041954
 C      4   2   1     2.611340989844    64.68990074     5.95318520
 C      5   3   2     2.768118842401    59.13416767   330.10350763
 C      6   4   2     2.605059515543    34.94039701   249.68019129
 C      8   6   4     2.664324249267   133.06561131   180.63343129
 C      9   4   2     2.645767432081   130.94927164   134.48921201
 C      1   2   3     2.610944010314    50.69593076   239.81093096
 C     13   9   4     2.622430504402   117.88510816   181.14751826
 C      3   2   1     2.307759984803    30.19538472   121.23022696
 C      1   2   3     2.695596576684    79.24321049    18.44635902
 H      7   6   4     2.071056214884   110.67730827   212.92235385
 H      7   6   4     2.070612160252   109.77800115   331.09356648
 H     10   5   3     2.074310366848   114.11137001   134.87797983
 H     11   6   4     2.043143606339   129.44412292   180.11985573
 H      4   2   1     1.907571270002   141.42281442   122.05373599
 H     12   8   6     2.044637199509   120.13406953   359.35749472
 H     13   9   4     2.051716302212   121.26883077     0.70735514
 H     15  13   9     2.050882219017   120.61661202   179.43825538
 H      5   3   2     1.925357548794    92.42956769    80.43358300
 H      5   3   2     1.924906802500   160.65578130   281.61812894
 H      2   1   3     1.842754329899    54.13692188   268.60263109
 H     17   1   2     2.062126058968   106.16673733   141.91478858
 H     17   1   2     2.073045784033   111.40591813    22.75742520
 H     17   1   2     2.072605394590   111.41372410   260.83081841

---------------------
BASIS SET INFORMATION
---------------------
There are 4 groups of distinct atoms

 Group   1 Type O   : 10s4p1d contracted to 3s2p1d pattern {631/31/1}
 Group   2 Type N   : 10s4p1d contracted to 3s2p1d pattern {631/31/1}
 Group   3 Type C   : 10s4p1d contracted to 3s2p1d pattern {631/31/1}
 Group   4 Type H   : 4s1p contracted to 2s1p pattern {31/1}

Atom   0O    basis set group =>   1
Atom   1O    basis set group =>   1
Atom   2O    basis set group =>   1
Atom   3N    basis set group =>   2
Atom   4N    basis set group =>   2
Atom   5C    basis set group =>   3
Atom   6C    basis set group =>   3
Atom   7C    basis set group =>   3
Atom   8C    basis set group =>   3
Atom   9C    basis set group =>   3
Atom  10C    basis set group =>   3
Atom  11C    basis set group =>   3
Atom  12C    basis set group =>   3
Atom  13C    basis set group =>   3
Atom  14C    basis set group =>   3
Atom  15C    basis set group =>   3
Atom  16C    basis set group =>   3
Atom  17H    basis set group =>   4
Atom  18H    basis set group =>   4
Atom  19H    basis set group =>   4
Atom  20H    basis set group =>   4
Atom  21H    basis set group =>   4
Atom  22H    basis set group =>   4
Atom  23H    basis set group =>   4
Atom  24H    basis set group =>   4
Atom  25H    basis set group =>   4
Atom  26H    basis set group =>   4
Atom  27H    basis set group =>   4
Atom  28H    basis set group =>   4
Atom  29H    basis set group =>   4
Atom  30H    basis set group =>   4
---------------------------------
AUXILIARY/J BASIS SET INFORMATION
---------------------------------
There are 4 groups of distinct atoms

 Group   1 Type O   : 12s5p4d2f1g contracted to 6s4p3d1f1g pattern {711111/2111/211/2/1}
 Group   2 Type N   : 12s5p4d2f1g contracted to 6s4p3d1f1g pattern {711111/2111/211/2/1}
 Group   3 Type C   : 12s5p4d2f1g contracted to 6s4p3d1f1g pattern {711111/2111/211/2/1}
 Group   4 Type H   : 5s2p1d contracted to 3s1p1d pattern {311/2/1}

Atom   0O    basis set group =>   1
Atom   1O    basis set group =>   1
Atom   2O    basis set group =>   1
Atom   3N    basis set group =>   2
Atom   4N    basis set group =>   2
Atom   5C    basis set group =>   3
Atom   6C    basis set group =>   3
Atom   7C    basis set group =>   3
Atom   8C    basis set group =>   3
Atom   9C    basis set group =>   3
Atom  10C    basis set group =>   3
Atom  11C    basis set group =>   3
Atom  12C    basis set group =>   3
Atom  13C    basis set group =>   3
Atom  14C    basis set group =>   3
Atom  15C    basis set group =>   3
Atom  16C    basis set group =>   3
Atom  17H    basis set group =>   4
Atom  18H    basis set group =>   4
Atom  19H    basis set group =>   4
Atom  20H    basis set group =>   4
Atom  21H    basis set group =>   4
Atom  22H    basis set group =>   4
Atom  23H    basis set group =>   4
Atom  24H    basis set group =>   4
Atom  25H    basis set group =>   4
Atom  26H    basis set group =>   4
Atom  27H    basis set group =>   4
Atom  28H    basis set group =>   4
Atom  29H    basis set group =>   4
Atom  30H    basis set group =>   4


           ************************************************************
           *        Program running with 2 parallel MPI-processes     *
           *              working on a common directory               *
           ************************************************************
------------------------------------------------------------------------------
                             ORCA STARTUP CALCULATIONS
                           -- RI-GTO INTEGRALS CHOSEN --
------------------------------------------------------------------------------
------------------------------------------------------------------------------
                   ___                                                        
                  /   \      - P O W E R E D   B Y -                         
                 /     \                                                     
                 |  |  |   _    _      __       _____    __    __             
                 |  |  |  | |  | |    /  \     |  _  \  |  |  /  |          
                  \  \/   | |  | |   /    \    | | | |  |  | /  /          
                 / \  \   | |__| |  /  /\  \   | |_| |  |  |/  /          
                |  |  |   |  __  | /  /__\  \  |    /   |      \           
                |  |  |   | |  | | |   __   |  |    \   |  |\   \          
                \     /   | |  | | |  |  |  |  | |\  \  |  | \   \       
                 \___/    |_|  |_| |__|  |__|  |_| \__\ |__|  \__/        
                                                                              
                      - O R C A' S   B I G   F R I E N D -                    
                                      &                                       
                       - I N T E G R A L  F E E D E R -                       
                                                                              
 v1 FN, 2020, v2 2021, v3 2022-2024                                           
------------------------------------------------------------------------------


----------------------
SHARK INTEGRAL PACKAGE
----------------------

Number of atoms                             ...     31
Number of basis functions                   ...    308
Number of shells                            ...    144
Maximum angular momentum                    ...      2
Integral batch strategy                     ... SHARK/LIBINT Hybrid
RI-J (if used) integral strategy            ... SPLIT-RIJ (Revised 2003 algorithm where possible)
Printlevel                                  ...      1
Contraction scheme used                     ... SEGMENTED contraction
Prescreening option                         ... SCHWARTZ
   Thresh                                   ... 2.500e-11
   Tcut                                     ... 2.500e-12
   Tpresel                                  ... 2.500e-12 
Coulomb Range Separation                    ... NOT USED
Exchange Range Separation                   ... NOT USED
Multipole approximations                    ... NOT USED
Finite Nucleus Model                        ... NOT USED
CABS basis                                  ... NOT available
Auxiliary Coulomb fitting basis             ... AVAILABLE
   # of basis functions in Aux-J            ...    987
   # of shells in Aux-J                     ...    325
   Maximum angular momentum in Aux-J        ...      4
Auxiliary J/K fitting basis                 ... NOT available
Auxiliary Correlation fitting basis         ... NOT available
Auxiliary 'external' fitting basis          ... NOT available

Checking pre-screening integrals            ... done (  0.0 sec) Dimension = 144
   => SHARK Basis and OBASIS are compatible. Storing Pre-screening
Shell pair information
Shell pair cut-off parameter TPreSel        ...   2.5e-12
Total number of shell pairs                 ...     10440
Shell pairs after pre-screening             ...      8199
Total number of primitive shell pairs       ...     53374
Primitive shell pairs kept                  ...     24921
          la=0 lb=0:   2469 shell pairs
          la=1 lb=0:   3008 shell pairs
          la=1 lb=1:    955 shell pairs
          la=2 lb=0:   1017 shell pairs
          la=2 lb=1:    634 shell pairs
          la=2 lb=2:    116 shell pairs

Checking whether 4 symmetric matrices of dimension 308 fit in memory
:Max Core in MB      =   3000.00
 MB in use           =     14.43
 MB left             =   2985.57
 MB needed           =      1.45
 Data fit in memory  = YES
Calculating RI/J V-Matrix + Cholesky decomp.... done (  0.1 sec)
Calculating Nuclear repulsion               ... done (  0.0 sec) ENN=   1222.761453541355 Eh

Diagonalization of the overlap matrix:
Smallest eigenvalue                        ... 3.657e-04
Time for diagonalization                   ...    0.015 sec
Threshold for overlap eigenvalues          ... 1.000e-07
Number of eigenvalues below threshold      ... 0
Time for construction of square roots      ...    0.007 sec
Total time needed                          ...    0.024 sec

-------------------
DFT GRID GENERATION
-------------------

General Integration Accuracy     IntAcc      ... 4.388
Radial Grid Type                 RadialGrid  ... OptM3 with GC (2021)
Angular Grid (max. ang.)         AngularGrid ... 4 (Lebedev-302)
Angular grid pruning method      GridPruning ... 4 (adaptive)
Weight generation scheme         WeightScheme... mBecke (2022)
Basis function cutoff            BFCut       ... 1.0000e-11
Integration weight cutoff        WCut        ... 1.0000e-14
Partially contracted basis set               ... off
Rotationally invariant grid construction     ... off
Angular grids for H and He will be reduced by one unit

Total number of grid points                  ...   146476
Total number of batches                      ...     2306
Average number of points per batch           ...       63
Average number of grid points per atom       ...     4725

--------------------
COSX GRID GENERATION
--------------------

GRIDX 1
-------
General Integration Accuracy     IntAcc      ... 3.816
Radial Grid Type                 RadialGrid  ... OptM3 with GC (2021)
Angular Grid (max. ang.)         AngularGrid ... 1 (Lebedev-50)
Angular grid pruning method      GridPruning ... 4 (adaptive)
Weight generation scheme         WeightScheme... mBecke (2022)
Basis function cutoff            BFCut       ... 1.0000e-11
Integration weight cutoff        WCut        ... 1.0000e-14
Partially contracted basis set               ... on
Rotationally invariant grid construction     ... off
Angular grids for H and He will be reduced by one unit

Total number of grid points                  ...    18617
Total number of batches                      ...      162
Average number of points per batch           ...      114
Average number of grid points per atom       ...      601
UseSFitting                                  ... on

GRIDX 2
-------
General Integration Accuracy     IntAcc      ... 4.020
Radial Grid Type                 RadialGrid  ... OptM3 with GC (2021)
Angular Grid (max. ang.)         AngularGrid ... 2 (Lebedev-110)
Angular grid pruning method      GridPruning ... 4 (adaptive)
Weight generation scheme         WeightScheme... mBecke (2022)
Basis function cutoff            BFCut       ... 1.0000e-11
Integration weight cutoff        WCut        ... 1.0000e-14
Partially contracted basis set               ... on
Rotationally invariant grid construction     ... off
Angular grids for H and He will be reduced by one unit

Total number of grid points                  ...    40398
Total number of batches                      ...      331
Average number of points per batch           ...      122
Average number of grid points per atom       ...     1303
UseSFitting                                  ... on

GRIDX 3
-------
General Integration Accuracy     IntAcc      ... 4.338
Radial Grid Type                 RadialGrid  ... OptM3 with GC (2021)
Angular Grid (max. ang.)         AngularGrid ... 3 (Lebedev-194)
Angular grid pruning method      GridPruning ... 4 (adaptive)
Weight generation scheme         WeightScheme... mBecke (2022)
Basis function cutoff            BFCut       ... 1.0000e-11
Integration weight cutoff        WCut        ... 1.0000e-14
Partially contracted basis set               ... on
Rotationally invariant grid construction     ... off
Angular grids for H and He will be reduced by one unit

Total number of grid points                  ...    88413
Total number of batches                      ...      703
Average number of points per batch           ...      125
Average number of grid points per atom       ...     2852
UseSFitting                                  ... on
Grids setup in   4.1 sec
Initializing property integral containers    ... done (  0.0 sec)

SHARK setup successfully completed in   4.4 seconds

Maximum memory used throughout the entire STARTUP-calculation: 51.2 MB


           ************************************************************
           *        Program running with 2 parallel MPI-processes     *
           *              working on a common directory               *
           ************************************************************
-------------------------------------------------------------------------------
                                 ORCA GUESS
                   Start orbitals & Density for SCF / CASSCF
-------------------------------------------------------------------------------

------------
SCF SETTINGS
------------
Hamiltonian:
 Density Functional     Method          .... DFT(GTOs)
 Exchange Functional    Exchange        .... B88
   X-Alpha parameter    XAlpha          ....  0.666667
   Becke's b parameter  XBeta           ....  0.004200
 Correlation Functional Correlation     .... LYP
 LDA part of GGA corr.  LDAOpt          .... VWN-5
 Gradients option       PostSCFGGA      .... off
 Hybrid DFT is turned on
   Fraction HF Exchange ScalHFX         ....  0.200000
   Scaling of DF-GGA-X  ScalDFX         ....  0.720000
   Scaling of DF-GGA-C  ScalDFC         ....  0.810000
   Scaling of DF-LDA-C  ScalLDAC        ....  1.000000
   Perturbative correction              ....  0.000000
   NL short-range parameter             ....  4.800000
 RI-approximation to the Coulomb term is turned on
   Number of AuxJ basis functions       .... 987
   RIJ-COSX (HFX calculated with COS-X)).... on


General Settings:
 Integral files         IntName         .... /kaggle/working/Trp-OMe-2/Trp-OMe_InterFrag
 Hartree-Fock type      HFTyp           .... RHF
 Total Charge           Charge          ....    0
 Multiplicity           Mult            ....    1
 Number of Electrons    NEL             ....  124
 Basis Dimension        Dim             ....  308
 Nuclear Repulsion      ENuc            ....   1222.7614535414 Eh

Convergence Acceleration:
 AO-DIIS                CNVDIIS         .... on
   Start iteration      DIISMaxIt       ....    12
   Startup error        DIISStart       ....  0.200000
   # of expansion vecs  DIISMaxEq       ....     5
   Bias factor          DIISBfac        ....   1.050
   Max. coefficient     DIISMaxC        ....  10.000
 MO-DIIS                CNVKDIIS        .... off
 Trust-Rad. Augm. Hess. CNVTRAH         .... auto
   Auto Start mean grad. ratio tolernc. ....  1.125000
   Auto Start start iteration           ....    50
   Auto Start num. interpolation iter.  ....    10
   Max. Number of Micro iterations      ....    24
   Max. Number of Macro iterations      .... Maxiter - #DIIS iter
   Number of Davidson start vectors     ....     2
   Converg. threshold    (grad. norm)   ....   1.000e-05
   Grad. Scal. Fac. for Micro threshold ....   0.100
   Minimum threshold for Micro iter.    ....   1.000e-02
   NR start threshold (gradient norm)   ....   1.000e-04
   Initial trust radius                 ....   0.400
   Minimum AH scaling param. (alpha)    ....   1.000
   Maximum AH scaling param. (alpha)    .... 1000.000
   Quad. conv. algorithm                .... NR
   White noise on init. David. guess    .... on
   Maximum white noise                  ....   0.010
   Pseudo random numbers                .... off
   Inactive MOs                         .... canonical
   Orbital update algorithm             .... Taylor
   Preconditioner                       .... Diag
   Full preconditioner red. dimension   ....   250
 SOSCF                 CNVSOSCF           .... on
   Start iteration     SOSCFMaxIt         ....   150
   Startup grad/error  SOSCFStart         ....  0.003300
   Hessian update      SOSCFHessUp        .... L-BFGS
   Autom. constraints  SOSCFAutoConstrain .... off
 Level Shifting         CNVShift        .... on
   Level shift para.    LevelShift      ....    0.2500
   Turn off err/grad.   ShiftErr        ....    0.0010
 Zerner damping         CNVZerner       .... off
 Static damping         CNVDamp         .... on
   Fraction old density DampFac         ....    0.7000
   Max. Damping (<1)    DampMax         ....    0.9800
   Min. Damping (>=0)   DampMin         ....    0.0000
   Turn off err/grad.   DampErr         ....    0.1000

SCF Procedure:
 Maximum # iterations   MaxIter         ....   125
 SCF integral mode      SCFMode         .... Direct
   Integral package                     .... SHARK and LIBINT hybrid scheme
 Reset frequency        DirectResetFreq ....    20
 Integral Threshold     Thresh          ....  2.500e-11 Eh
 Primitive CutOff       TCut            ....  2.500e-12 Eh

Convergence Tolerance:
 Convergence Check Mode ConvCheckMode   .... Total+1el-Energy
 Convergence forced     ConvForced      .... 0
 Energy Change          TolE            ....  1.000e-08 Eh
 1-El. energy change                    ....  1.000e-05 Eh
 Orbital Gradient       TolG            ....  1.000e-05
 Orbital Rotation angle TolX            ....  1.000e-05
 DIIS Error             TolErr          ....  5.000e-07

------------------------------
INITIAL GUESS: MODEL POTENTIAL
------------------------------
Loading Hartree-Fock densities                     ... done
Calculating cut-offs                               ... done
Initializing the effective Hamiltonian             ... done
Setting up the integral package (SHARK)            ... done
Starting the Coulomb interaction                   ... done (   0.5 sec)
Making the grid                                    ... done (   0.5 sec)
Mapping shells                                     ... done
Starting the XC term evaluation                    ... done (   0.4 sec)
  promolecular density results
     # of electrons  =    123.995089403
     EX              =   -103.662440779
     EC              =     -4.249865931
     EX+EC           =   -107.912306709
Transforming the Hamiltonian                       ... done (   0.0 sec)
Diagonalizing the Hamiltonian                      ... done (   0.0 sec)
Back transforming the eigenvectors                 ... done (   0.0 sec)
Now organizing SCF variables                       ... done
                      ------------------
                      INITIAL GUESS DONE (   1.4 sec)
                      ------------------
             **** ENERGY FILE WAS UPDATED (/kaggle/working/Trp-OMe-2/Trp-OMe_InterFrag.en.tmp) ****
Finished Guess after   1.8 sec
Maximum memory used throughout the entire GUESS-calculation: 20.7 MB


           ************************************************************
           *        Program running with 2 parallel MPI-processes     *
           *              working on a common directory               *
           ************************************************************

-------------------------------------------------------------------------------------------
                                      ORCA LEAN-SCF
                              memory conserving SCF solver
-------------------------------------------------------------------------------------------

----------------------------------------D-I-I-S--------------------------------------------
Iteration    Energy (Eh)           Delta-E    RMSDP     MaxDP     DIISErr   Damp  Time(sec)
-------------------------------------------------------------------------------------------
               ***  Starting incremental Fock matrix formation  ***
    1    -799.9603667630613018     0.00e+00  3.50e-03  9.64e-02  2.67e-01  0.700  15.6
    2    -800.1773897378734546    -2.17e-01  2.40e-03  5.35e-02  1.10e-01  0.700   6.8
                               ***Turning on AO-DIIS***
    3    -800.2629060436470354    -8.55e-02  9.85e-04  1.67e-02  3.31e-02  0.700   6.6
    4    -800.3144606780263075    -5.16e-02  1.69e-03  2.49e-02  1.71e-02  0.000   6.2
    5    -800.4271609267677832    -1.13e-01  3.43e-04  8.31e-03  6.74e-03  0.000   6.4
                              *** Initializing SOSCF ***
---------------------------------------S-O-S-C-F--------------------------------------
Iteration    Energy (Eh)           Delta-E    RMSDP     MaxDP     MaxGrad    Time(sec)
--------------------------------------------------------------------------------------
    6    -800.4278315294552613    -6.71e-04  1.13e-04  2.37e-03  2.25e-03     5.7
               *** Restarting incremental Fock matrix formation ***
    7    -800.4278968161265766    -6.53e-05  8.55e-05  2.10e-03  4.52e-04    13.9
    8    -800.4278833695693720     1.34e-05  4.50e-05  1.54e-03  1.09e-03     9.0
    9    -800.4279041782540389    -2.08e-05  1.61e-05  3.07e-04  7.23e-05     8.4
   10    -800.4279039965797438     1.82e-07  8.27e-06  1.85e-04  7.86e-05     7.6
   11    -800.4279045188291093    -5.22e-07  4.30e-06  8.99e-05  2.27e-05     7.0
   12    -800.4279044843708562     3.45e-08  2.67e-06  5.91e-05  3.41e-05     6.3
   13    -800.4279045391681393    -5.48e-08  7.67e-07  2.07e-05  4.80e-06     5.8
   14    -800.4279045268829123     1.23e-08  5.03e-07  1.46e-05  9.20e-06     4.8
   15    -800.4279045412779396    -1.44e-08  1.16e-07  2.46e-06  5.21e-07     4.4
                  *** Gradient check signals convergence ***

               *****************************************************
               *                     SUCCESS                       *
               *           SCF CONVERGED AFTER  15 CYCLES          *
               *****************************************************

Recomputing exchange energy using gridx3       ... done (   23.505 sec)
Old exchange energy                            :    -21.046553898 Eh
New exchange energy                            :    -21.046602177 Eh
Exchange energy change after final integration :     -0.000048279 Eh
Total energy after final integration           :   -800.427952827 Eh
             **** ENERGY FILE WAS UPDATED (/kaggle/working/Trp-OMe-2/Trp-OMe_InterFrag.en.tmp) ****

----------------
TOTAL SCF ENERGY
----------------

Total Energy       :       -800.42795282745465 Eh          -21780.75191 eV

Components:
Nuclear Repulsion  :       1222.76145354135497 Eh           33273.03072 eV
Electronic Energy  :      -2023.18935809024083 Eh          -55053.78131 eV
One Electron Energy:      -3518.88456503231191 Eh          -95753.71704 eV
Two Electron Energy:       1495.69520694207108 Eh           40699.93573 eV

Virial components:
Potential Energy   :      -1595.92578232968481 Eh          -43427.34834 eV
Kinetic Energy     :        795.49782950223005 Eh           21646.59643 eV
Virial Ratio       :          2.00619753208919

DFT components:
N(Alpha)           :       62.000036469304 electrons
N(Beta)            :       62.000036469304 electrons
N(Total)           :      124.000072938608 electrons
E(X)               :      -83.627295530890 Eh       
E(C)               :       -5.004214508521 Eh       
E(XC)              :      -88.631510039412 Eh       

---------------
SCF CONVERGENCE
---------------

  Last Energy change         ...    1.4395e-08  Tolerance :   1.0000e-08
  Last MAX-Density change    ...    2.4595e-06  Tolerance :   1.0000e-07
  Last RMS-Density change    ...    1.1601e-07  Tolerance :   5.0000e-09
  Last DIIS Error            ...    2.2481e-03  Tolerance :   5.0000e-07
  Last Orbital Gradient      ...    5.2123e-07  Tolerance :   1.0000e-05
  Last Orbital Rotation      ...    2.1057e-06  Tolerance :   1.0000e-05


----------------
ORBITAL ENERGIES
----------------

  NO   OCC          E(Eh)            E(eV) 
   0   2.0000     -19.185050      -522.0518 
   1   2.0000     -19.152782      -521.1737 
   2   2.0000     -19.124484      -520.4037 
   3   2.0000     -14.367863      -390.9694 
   4   2.0000     -14.313075      -389.4786 
   5   2.0000     -10.304739      -280.4062 
   6   2.0000     -10.223351      -278.1915 
   7   2.0000     -10.218608      -278.0625 
   8   2.0000     -10.218285      -278.0537 
   9   2.0000     -10.206797      -277.7411 
  10   2.0000     -10.201028      -277.5841 
  11   2.0000     -10.186036      -277.1761 
  12   2.0000     -10.178605      -276.9739 
  13   2.0000     -10.169815      -276.7347 
  14   2.0000     -10.168661      -276.7033 
  15   2.0000     -10.167853      -276.6813 
  16   2.0000     -10.163873      -276.5731 
  17   2.0000      -1.095371       -29.8066 
  18   2.0000      -1.037364       -28.2281 
  19   2.0000      -0.999946       -27.2099 
  20   2.0000      -0.968781       -26.3619 
  21   2.0000      -0.890778       -24.2393 
  22   2.0000      -0.826764       -22.4974 
  23   2.0000      -0.793008       -21.5788 
  24   2.0000      -0.740536       -20.1510 
  25   2.0000      -0.731055       -19.8930 
  26   2.0000      -0.709290       -19.3008 
  27   2.0000      -0.679878       -18.5004 
  28   2.0000      -0.667456       -18.1624 
  29   2.0000      -0.603765       -16.4293 
  30   2.0000      -0.589283       -16.0352 
  31   2.0000      -0.576655       -15.6916 
  32   2.0000      -0.548356       -14.9215 
  33   2.0000      -0.531089       -14.4517 
  34   2.0000      -0.503838       -13.7101 
  35   2.0000      -0.497896       -13.5484 
  36   2.0000      -0.478647       -13.0246 
  37   2.0000      -0.473590       -12.8871 
  38   2.0000      -0.462663       -12.5897 
  39   2.0000      -0.453711       -12.3461 
  40   2.0000      -0.448140       -12.1945 
  41   2.0000      -0.446748       -12.1566 
  42   2.0000      -0.429397       -11.6845 
  43   2.0000      -0.421800       -11.4778 
  44   2.0000      -0.413744       -11.2585 
  45   2.0000      -0.409187       -11.1345 
  46   2.0000      -0.392179       -10.6717 
  47   2.0000      -0.385112       -10.4794 
  48   2.0000      -0.382204       -10.4003 
  49   2.0000      -0.373338       -10.1590 
  50   2.0000      -0.363404        -9.8887 
  51   2.0000      -0.352912        -9.6032 
  52   2.0000      -0.345134        -9.3916 
  53   2.0000      -0.336401        -9.1539 
  54   2.0000      -0.311389        -8.4733 
  55   2.0000      -0.304702        -8.2914 
  56   2.0000      -0.283564        -7.7162 
  57   2.0000      -0.262601        -7.1457 
  58   2.0000      -0.261584        -7.1181 
  59   2.0000      -0.241878        -6.5818 
  60   2.0000      -0.196027        -5.3342 
  61   2.0000      -0.188276        -5.1233 
  62   0.0000      -0.001569        -0.0427 
  63   0.0000       0.010629         0.2892 
  64   0.0000       0.046897         1.2761 
  65   0.0000       0.066613         1.8126 
  66   0.0000       0.081343         2.2134 
  67   0.0000       0.082163         2.2358 
  68   0.0000       0.086299         2.3483 
  69   0.0000       0.115462         3.1419 
  70   0.0000       0.127839         3.4787 
  71   0.0000       0.133260         3.6262 
  72   0.0000       0.143631         3.9084 
  73   0.0000       0.148823         4.0497 
  74   0.0000       0.157077         4.2743 
  75   0.0000       0.166257         4.5241 
  76   0.0000       0.171993         4.6802 
  77   0.0000       0.183631         4.9968 
  78   0.0000       0.186759         5.0820 
  79   0.0000       0.187862         5.1120 
  80   0.0000       0.191937         5.2229 
  81   0.0000       0.199990         5.4420 
  82   0.0000       0.217034         5.9058 
  83   0.0000       0.250313         6.8114 
  84   0.0000       0.256445         6.9782 
  85   0.0000       0.262631         7.1466 
  86   0.0000       0.265140         7.2148 
  87   0.0000       0.280232         7.6255 
  88   0.0000       0.289017         7.8646 
  89   0.0000       0.299099         8.1389 
  90   0.0000       0.332488         9.0475 
  91   0.0000       0.348260         9.4766 
  92   0.0000       0.355780         9.6813 
  93   0.0000       0.387209        10.5365 
  94   0.0000       0.391022        10.6402 
  95   0.0000       0.418101        11.3771 
  96   0.0000       0.456583        12.4242 
  97   0.0000       0.495067        13.4715 
  98   0.0000       0.503405        13.6983 
  99   0.0000       0.516814        14.0632 
 100   0.0000       0.525124        14.2893 
 101   0.0000       0.535731        14.5780 
 102   0.0000       0.543758        14.7964 
 103   0.0000       0.548530        14.9263 
 104   0.0000       0.553996        15.0750 
 105   0.0000       0.563425        15.3316 
 106   0.0000       0.568281        15.4637 
 107   0.0000       0.582796        15.8587 
 108   0.0000       0.590707        16.0740 
 109   0.0000       0.600258        16.3339 
 110   0.0000       0.607766        16.5382 
 111   0.0000       0.614937        16.7333 
 112   0.0000       0.624412        16.9911 
 113   0.0000       0.630294        17.1512 
 114   0.0000       0.636331        17.3155 
 115   0.0000       0.645598        17.5676 
 116   0.0000       0.650526        17.7017 
 117   0.0000       0.654251        17.8031 
 118   0.0000       0.663190        18.0463 
 119   0.0000       0.681526        18.5453 
 120   0.0000       0.692970        18.8567 
 121   0.0000       0.709430        19.3046 
 122   0.0000       0.731247        19.8982 
 123   0.0000       0.742400        20.2017 
 124   0.0000       0.748974        20.3806 
 125   0.0000       0.752499        20.4765 
 126   0.0000       0.775874        21.1126 
 127   0.0000       0.787911        21.4402 
 128   0.0000       0.797727        21.7072 
 129   0.0000       0.803713        21.8701 
 130   0.0000       0.810794        22.0628 
 131   0.0000       0.821203        22.3461 
 132   0.0000       0.826868        22.5002 
 133   0.0000       0.836188        22.7538 
 134   0.0000       0.846202        23.0263 
 135   0.0000       0.849034        23.1034 
 136   0.0000       0.863657        23.5013 
 137   0.0000       0.866557        23.5802 
 138   0.0000       0.871427        23.7127 
 139   0.0000       0.879093        23.9213 
 140   0.0000       0.890942        24.2438 
 141   0.0000       0.906118        24.6567 
 142   0.0000       0.909352        24.7447 
 143   0.0000       0.932772        25.3820 
 144   0.0000       0.940677        25.5971 
 145   0.0000       0.945083        25.7170 
 146   0.0000       0.957688        26.0600 
 147   0.0000       0.969191        26.3730 
 148   0.0000       0.971762        26.4430 
 149   0.0000       0.983418        26.7602 
 150   0.0000       1.005011        27.3477 
 151   0.0000       1.015055        27.6211 
 152   0.0000       1.027436        27.9580 
 153   0.0000       1.036593        28.2071 
 154   0.0000       1.056050        28.7366 
 155   0.0000       1.060300        28.8522 
 156   0.0000       1.079492        29.3745 
 157   0.0000       1.099444        29.9174 
 158   0.0000       1.111181        30.2368 
 159   0.0000       1.132142        30.8071 
 160   0.0000       1.147326        31.2203 
 161   0.0000       1.151476        31.3333 
 162   0.0000       1.175254        31.9803 
 163   0.0000       1.193671        32.4815 
 164   0.0000       1.220610        33.2145 
 165   0.0000       1.230064        33.4717 
 166   0.0000       1.247916        33.9575 
 167   0.0000       1.262893        34.3651 
 168   0.0000       1.301167        35.4065 
 169   0.0000       1.317118        35.8406 
 170   0.0000       1.331395        36.2291 
 171   0.0000       1.338319        36.4175 
 172   0.0000       1.353729        36.8368 
 173   0.0000       1.369379        37.2627 
 174   0.0000       1.373931        37.3866 
 175   0.0000       1.393654        37.9233 
 176   0.0000       1.403428        38.1892 
 177   0.0000       1.405175        38.2368 
 178   0.0000       1.432728        38.9865 
 179   0.0000       1.439318        39.1658 
 180   0.0000       1.457337        39.6562 
 181   0.0000       1.464365        39.8474 
 182   0.0000       1.466461        39.9044 
 183   0.0000       1.486044        40.4373 
 184   0.0000       1.518166        41.3114 
 185   0.0000       1.562613        42.5209 
 186   0.0000       1.567624        42.6572 
 187   0.0000       1.603336        43.6290 
 188   0.0000       1.633382        44.4466 
 189   0.0000       1.639850        44.6226 
 190   0.0000       1.675562        45.5943 
 191   0.0000       1.701015        46.2870 
 192   0.0000       1.725604        46.9561 
 193   0.0000       1.734174        47.1893 
 194   0.0000       1.757512        47.8243 
 195   0.0000       1.778044        48.3830 
 196   0.0000       1.796541        48.8864 
 197   0.0000       1.799247        48.9600 
 198   0.0000       1.808982        49.2249 
 199   0.0000       1.825287        49.6686 
 200   0.0000       1.841838        50.1190 
 201   0.0000       1.860308        50.6216 
 202   0.0000       1.868921        50.8559 
 203   0.0000       1.880227        51.1636 
 204   0.0000       1.881795        51.2062 
 205   0.0000       1.887607        51.3644 
 206   0.0000       1.905616        51.8544 
 207   0.0000       1.913286        52.0632 
 208   0.0000       1.920566        52.2612 
 209   0.0000       1.932750        52.5928 
 210   0.0000       1.934371        52.6369 
 211   0.0000       1.944002        52.8990 
 212   0.0000       1.964699        53.4622 
 213   0.0000       1.973417        53.6994 
 214   0.0000       1.982048        53.9343 
 215   0.0000       1.997507        54.3549 
 216   0.0000       2.006686        54.6047 
 217   0.0000       2.018401        54.9235 
 218   0.0000       2.035094        55.3777 
 219   0.0000       2.040142        55.5151 
 220   0.0000       2.042376        55.5759 
 221   0.0000       2.057220        55.9798 
 222   0.0000       2.064324        56.1731 
 223   0.0000       2.095354        57.0175 
 224   0.0000       2.107179        57.3392 
 225   0.0000       2.123132        57.7734 
 226   0.0000       2.138633        58.1952 
 227   0.0000       2.145604        58.3848 
 228   0.0000       2.148315        58.4586 
 229   0.0000       2.175204        59.1903 
 230   0.0000       2.202813        59.9416 
 231   0.0000       2.210335        60.1463 
 232   0.0000       2.229856        60.6775 
 233   0.0000       2.243073        61.0371 
 234   0.0000       2.257667        61.4342 
 235   0.0000       2.273734        61.8715 
 236   0.0000       2.289294        62.2948 
 237   0.0000       2.291393        62.3520 
 238   0.0000       2.311656        62.9034 
 239   0.0000       2.326481        63.3068 
 240   0.0000       2.339951        63.6733 
 241   0.0000       2.354373        64.0657 
 242   0.0000       2.369256        64.4707 
 243   0.0000       2.379355        64.7455 
 244   0.0000       2.401933        65.3599 
 245   0.0000       2.411194        65.6119 
 246   0.0000       2.428321        66.0780 
 247   0.0000       2.430785        66.1450 
 248   0.0000       2.449819        66.6630 
 249   0.0000       2.479080        67.4592 
 250   0.0000       2.484019        67.5936 
 251   0.0000       2.514661        68.4274 
 252   0.0000       2.521632        68.6171 
 253   0.0000       2.527937        68.7887 
 254   0.0000       2.546620        69.2971 
 255   0.0000       2.556685        69.5709 
 256   0.0000       2.568901        69.9034 
 257   0.0000       2.574078        70.0442 
 258   0.0000       2.581970        70.2590 
 259   0.0000       2.584307        70.3226 
 260   0.0000       2.608284        70.9750 
 261   0.0000       2.615374        71.1680 
 262   0.0000       2.619666        71.2847 
 263   0.0000       2.631036        71.5941 
 264   0.0000       2.666750        72.5660 
 265   0.0000       2.672409        72.7199 
 266   0.0000       2.699429        73.4552 
 267   0.0000       2.712791        73.8188 
 268   0.0000       2.725445        74.1631 
 269   0.0000       2.735256        74.4301 
 270   0.0000       2.744182        74.6730 
 271   0.0000       2.751308        74.8669 
 272   0.0000       2.774859        75.5077 
 273   0.0000       2.780856        75.6709 
 274   0.0000       2.802117        76.2495 
 275   0.0000       2.815115        76.6032 
 276   0.0000       2.827144        76.9305 
 277   0.0000       2.841526        77.3219 
 278   0.0000       2.848252        77.5049 
 279   0.0000       2.854335        77.6704 
 280   0.0000       2.893248        78.7293 
 281   0.0000       2.903837        79.0174 
 282   0.0000       2.912490        79.2529 
 283   0.0000       2.947259        80.1990 
 284   0.0000       2.974003        80.9267 
 285   0.0000       3.015012        82.0427 
 286   0.0000       3.028233        82.4024 
 287   0.0000       3.080461        83.8236 
 288   0.0000       3.093443        84.1769 
 289   0.0000       3.124533        85.0229 
 290   0.0000       3.170327        86.2690 
 291   0.0000       3.188814        86.7720 
 292   0.0000       3.219266        87.6007 
 293   0.0000       3.223019        87.7028 
 294   0.0000       3.293613        89.6238 
 295   0.0000       3.302949        89.8778 
 296   0.0000       3.329878        90.6106 
 297   0.0000       3.357394        91.3593 
 298   0.0000       3.400782        92.5400 
 299   0.0000       3.420751        93.0834 
 300   0.0000       3.433491        93.4300 
 301   0.0000       3.463412        94.2442 
 302   0.0000       3.478158        94.6455 
 303   0.0000       3.502554        95.3093 
 304   0.0000       3.523719        95.8853 
 305   0.0000       3.546254        96.4985 
 306   0.0000       3.769136       102.5634 
 307   0.0000       3.822749       104.0223 

                    ********************************
                    * MULLIKEN POPULATION ANALYSIS *
                    ********************************

-----------------------
MULLIKEN ATOMIC CHARGES
-----------------------
   0 O :   -0.509710
   1 O :   -0.464275
   2 O :   -0.437638
   3 N :   -0.554764
   4 N :   -0.554322
   5 C :    0.038890
   6 C :   -0.244447
   7 C :    0.052836
   8 C :    0.241418
   9 C :    0.002580
  10 C :    0.031587
  11 C :   -0.227203
  12 C :   -0.099149
  13 C :    0.319635
  14 C :   -0.135369
  15 C :    0.535751
  16 C :   -0.070729
  17 H :    0.132601
  18 H :    0.092889
  19 H :    0.093727
  20 H :    0.096548
  21 H :    0.258319
  22 H :    0.108875
  23 H :    0.075915
  24 H :    0.087181
  25 H :    0.236521
  26 H :    0.232242
  27 H :    0.323785
  28 H :    0.113687
  29 H :    0.113687
  30 H :    0.108935
Sum of atomic charges:   -0.0000000

--------------------------------
MULLIKEN REDUCED ORBITAL CHARGES
--------------------------------
  0 O s       :     3.875783  s :     3.875783
      pz      :     1.774769  p :     4.604979
      px      :     1.610245
      py      :     1.219965
      dz2     :     0.003958  d :     0.028948
      dxz     :     0.003842
      dyz     :     0.005011
      dx2y2   :     0.005720
      dxy     :     0.010416

  1 O s       :     3.824513  s :     3.824513
      pz      :     1.449457  p :     4.616302
      px      :     1.566207
      py      :     1.600638
      dz2     :     0.006164  d :     0.023460
      dxz     :     0.003285
      dyz     :     0.005743
      dx2y2   :     0.002143
      dxy     :     0.006124

  2 O s       :     3.864936  s :     3.864936
      pz      :     1.631843  p :     4.545140
      px      :     1.531811
      py      :     1.381485
      dz2     :     0.003878  d :     0.027562
      dxz     :     0.001770
      dyz     :     0.007497
      dx2y2   :     0.006889
      dxy     :     0.007529

  3 N s       :     3.596536  s :     3.596536
      pz      :     1.556942  p :     3.922151
      px      :     1.190957
      py      :     1.174252
      dz2     :     0.003729  d :     0.036078
      dxz     :     0.007047
      dyz     :     0.005166
      dx2y2   :     0.010402
      dxy     :     0.009734

  4 N s       :     3.629853  s :     3.629853
      pz      :     1.376767  p :     3.893605
      px      :     1.108774
      py      :     1.408064
      dz2     :     0.004004  d :     0.030865
      dxz     :     0.010329
      dyz     :     0.004260
      dx2y2   :     0.003655
      dxy     :     0.008617

  5 C s       :     3.124404  s :     3.124404
      pz      :     1.027422  p :     2.796187
      px      :     0.894162
      py      :     0.874603
      dz2     :     0.003864  d :     0.040519
      dxz     :     0.005991
      dyz     :     0.007458
      dx2y2   :     0.012650
      dxy     :     0.010556

  6 C s       :     3.238805  s :     3.238805
      pz      :     0.975073  p :     2.967122
      px      :     0.974262
      py      :     1.017788
      dz2     :     0.003898  d :     0.038520
      dxz     :     0.009338
      dyz     :     0.011019
      dx2y2   :     0.004803
      dxy     :     0.009461

  7 C s       :     3.142059  s :     3.142059
      pz      :     0.993767  p :     2.762705
      px      :     0.894469
      py      :     0.874469
      dz2     :     0.004347  d :     0.042401
      dxz     :     0.006255
      dyz     :     0.008025
      dx2y2   :     0.009749
      dxy     :     0.014025

  8 C s       :     3.058128  s :     3.058128
      pz      :     1.017822  p :     2.643334
      px      :     0.834852
      py      :     0.790660
      dz2     :     0.005625  d :     0.057119
      dxz     :     0.008470
      dyz     :     0.010384
      dx2y2   :     0.014118
      dxy     :     0.018522

  9 C s       :     3.176702  s :     3.176702
      pz      :     0.959633  p :     2.763678
      px      :     0.861082
      py      :     0.942963
      dz2     :     0.006411  d :     0.057040
      dxz     :     0.011987
      dyz     :     0.015931
      dx2y2   :     0.010243
      dxy     :     0.012468

 10 C s       :     3.095493  s :     3.095493
      pz      :     1.029711  p :     2.821848
      px      :     0.787766
      py      :     1.004372
      dz2     :     0.006867  d :     0.051071
      dxz     :     0.008844
      dyz     :     0.006273
      dx2y2   :     0.014446
      dxy     :     0.014641

 11 C s       :     3.157142  s :     3.157142
      pz      :     1.064942  p :     3.036704
      px      :     0.945516
      py      :     1.026245
      dz2     :     0.003031  d :     0.033356
      dxz     :     0.005265
      dyz     :     0.005198
      dx2y2   :     0.009637
      dxy     :     0.010225

 12 C s       :     3.146942  s :     3.146942
      pz      :     1.022121  p :     2.916867
      px      :     0.947519
      py      :     0.947228
      dz2     :     0.002869  d :     0.035340
      dxz     :     0.005613
      dyz     :     0.005983
      dx2y2   :     0.010111
      dxy     :     0.010764

 13 C s       :     3.086647  s :     3.086647
      pz      :     0.975995  p :     2.525465
      px      :     0.873574
      py      :     0.675896
      dz2     :     0.006452  d :     0.068252
      dxz     :     0.008598
      dyz     :     0.013403
      dx2y2   :     0.018639
      dxy     :     0.021160

 14 C s       :     3.188705  s :     3.188705
      pz      :     1.030156  p :     2.913684
      px      :     0.948901
      py      :     0.934626
      dz2     :     0.003384  d :     0.032980
      dxz     :     0.003168
      dyz     :     0.006754
      dx2y2   :     0.009252
      dxy     :     0.010421

 15 C s       :     2.989468  s :     2.989468
      pz      :     0.730097  p :     2.352432
      px      :     0.787280
      py      :     0.835055
      dz2     :     0.030454  d :     0.122348
      dxz     :     0.015859
      dyz     :     0.033218
      dx2y2   :     0.016937
      dxy     :     0.025880

 16 C s       :     3.192337  s :     3.192337
      pz      :     1.026719  p :     2.823010
      px      :     0.949826
      py      :     0.846465
      dz2     :     0.012113  d :     0.055382
      dxz     :     0.011409
      dyz     :     0.006563
      dx2y2   :     0.009507
      dxy     :     0.015790

 17 H s       :     0.856064  s :     0.856064
      pz      :     0.004439  p :     0.011335
      px      :     0.002243
      py      :     0.004653

 18 H s       :     0.895518  s :     0.895518
      pz      :     0.003484  p :     0.011593
      px      :     0.003694
      py      :     0.004415

 19 H s       :     0.895417  s :     0.895417
      pz      :     0.004651  p :     0.010856
      px      :     0.001766
      py      :     0.004439

 20 H s       :     0.890859  s :     0.890859
      pz      :     0.003072  p :     0.012593
      px      :     0.004547
      py      :     0.004974

 21 H s       :     0.716745  s :     0.716745
      pz      :     0.008105  p :     0.024936
      px      :     0.005138
      py      :     0.011693

 22 H s       :     0.878038  s :     0.878038
      pz      :     0.003767  p :     0.013088
      px      :     0.004326
      py      :     0.004994

 23 H s       :     0.911672  s :     0.911672
      pz      :     0.003531  p :     0.012412
      px      :     0.004179
      py      :     0.004702

 24 H s       :     0.900393  s :     0.900393
      pz      :     0.003183  p :     0.012426
      px      :     0.006967
      py      :     0.002276

 25 H s       :     0.739730  s :     0.739730
      pz      :     0.008780  p :     0.023749
      px      :     0.007188
      py      :     0.007782

 26 H s       :     0.743916  s :     0.743916
      pz      :     0.008213  p :     0.023842
      px      :     0.006216
      py      :     0.009412

 27 H s       :     0.638720  s :     0.638720
      pz      :     0.008719  p :     0.037495
      px      :     0.013031
      py      :     0.015745

 28 H s       :     0.875550  s :     0.875550
      pz      :     0.002331  p :     0.010763
      px      :     0.003241
      py      :     0.005191

 29 H s       :     0.875289  s :     0.875289
      pz      :     0.003643  p :     0.011024
      px      :     0.005515
      py      :     0.001865

 30 H s       :     0.880053  s :     0.880053
      pz      :     0.006660  p :     0.011013
      px      :     0.002563
      py      :     0.001790


------------------------
MULLIKEN OVERLAP CHARGES
------------------------
B(  0-O , 11-C ) :  -0.1111 B(  0-O , 13-C ) :   0.5691 B(  0-O , 14-C ) :  -0.0976 
B(  0-O , 16-C ) :   0.5312 B(  0-O , 28-H ) :  -0.0638 B(  0-O , 29-H ) :  -0.0721 
B(  0-O , 30-H ) :  -0.0736 B(  1-O ,  2-O ) :  -0.1641 B(  1-O ,  9-C ) :  -0.1611 
B(  1-O , 15-C ) :   0.5705 B(  1-O , 27-H ) :   0.5478 B(  2-O ,  9-C ) :  -0.1656 
B(  2-O , 15-C ) :   1.2116 B(  3-N ,  5-C ) :  -0.1103 B(  3-N ,  7-C ) :  -0.1042 
B(  3-N ,  8-C ) :   0.5885 B(  3-N , 10-C ) :   0.6799 B(  3-N , 12-C ) :  -0.1735 
B(  3-N , 20-H ) :  -0.0918 B(  3-N , 21-H ) :   0.7100 B(  4-N ,  6-C ) :  -0.0848 
B(  4-N ,  9-C ) :   0.5871 B(  4-N , 15-C ) :  -0.0879 B(  4-N , 19-H ) :  -0.0927 
B(  4-N , 25-H ) :   0.6648 B(  4-N , 26-H ) :   0.6630 B(  5-C ,  6-C ) :   0.6494 
B(  5-C ,  7-C ) :   0.8434 B(  5-C ,  9-C ) :  -0.0732 B(  5-C , 10-C ) :   0.9838 
B(  5-C , 11-C ) :  -0.1962 B(  5-C , 18-H ) :  -0.0529 B(  5-C , 20-H ) :  -0.0601 
B(  6-C ,  7-C ) :  -0.1077 B(  6-C ,  9-C ) :   0.6547 B(  6-C , 10-C ) :  -0.1728 
B(  6-C , 17-H ) :   0.7226 B(  6-C , 18-H ) :   0.7360 B(  6-C , 19-H ) :  -0.1004 
B(  7-C ,  8-C ) :   0.9159 B(  7-C , 11-C ) :   0.8264 B(  7-C , 12-C ) :  -0.0864 
B(  7-C , 14-C ) :  -0.0631 B(  7-C , 22-H ) :  -0.0620 B(  8-C , 10-C ) :  -0.2818 
B(  8-C , 11-C ) :  -0.1451 B(  8-C , 12-C ) :   0.9563 B(  8-C , 13-C ) :  -0.0792 
B(  8-C , 21-H ) :  -0.0580 B(  8-C , 23-H ) :  -0.0754 B(  9-C , 15-C ) :   0.5537 
B(  9-C , 17-H ) :  -0.0834 B(  9-C , 18-H ) :  -0.0798 B(  9-C , 19-H ) :   0.7446 
B(  9-C , 25-H ) :  -0.0668 B(  9-C , 26-H ) :  -0.0675 B( 10-C , 20-H ) :   0.7419 
B( 10-C , 21-H ) :  -0.0639 B( 11-C , 12-C ) :  -0.1197 B( 11-C , 13-C ) :   0.8808 
B( 11-C , 14-C ) :  -0.1087 B( 11-C , 22-H ) :   0.6997 B( 12-C , 14-C ) :   1.0652 
B( 12-C , 23-H ) :   0.7104 B( 12-C , 24-H ) :  -0.0775 B( 13-C , 14-C ) :   1.0336 
B( 13-C , 16-C ) :  -0.0978 B( 13-C , 22-H ) :  -0.0857 B( 13-C , 24-H ) :  -0.0684 
B( 14-C , 23-H ) :  -0.0720 B( 14-C , 24-H ) :   0.7066 B( 15-C , 19-H ) :  -0.1112 
B( 16-C , 28-H ) :   0.7805 B( 16-C , 29-H ) :   0.7401 B( 16-C , 30-H ) :   0.7522 
B( 17-H , 18-H ) :  -0.0649 B( 25-H , 26-H ) :  -0.0649 B( 28-H , 29-H ) :  -0.0631 
B( 28-H , 30-H ) :  -0.0687 B( 29-H , 30-H ) :  -0.1009 


                     *******************************
                     * LOEWDIN POPULATION ANALYSIS *
                     *******************************

----------------------
LOEWDIN ATOMIC CHARGES
----------------------
   0 O :   -0.178072
   1 O :   -0.144604
   2 O :   -0.239298
   3 N :   -0.033448
   4 N :   -0.255804
   5 C :   -0.078375
   6 C :   -0.105670
   7 C :   -0.028704
   8 C :    0.004023
   9 C :   -0.038677
  10 C :   -0.048162
  11 C :   -0.138139
  12 C :   -0.092030
  13 C :    0.067130
  14 C :   -0.096919
  15 C :    0.144565
  16 C :   -0.042846
  17 H :    0.086161
  18 H :    0.072159
  19 H :    0.058275
  20 H :    0.070452
  21 H :    0.150058
  22 H :    0.081490
  23 H :    0.071255
  24 H :    0.078666
  25 H :    0.127409
  26 H :    0.123924
  27 H :    0.186408
  28 H :    0.073628
  29 H :    0.063402
  30 H :    0.061746

-------------------------------
LOEWDIN REDUCED ORBITAL CHARGES
-------------------------------
  0 O s       :     3.469034  s :     3.469034
      pz      :     1.762230  p :     4.643382
      px      :     1.625103
      py      :     1.256049
      dz2     :     0.007727  d :     0.065656
      dxz     :     0.005895
      dyz     :     0.012748
      dx2y2   :     0.015416
      dxy     :     0.023871

  1 O s       :     3.475166  s :     3.475166
      pz      :     1.466863  p :     4.619865
      px      :     1.554095
      py      :     1.598907
      dz2     :     0.013276  d :     0.049573
      dxz     :     0.010508
      dyz     :     0.011942
      dx2y2   :     0.003178
      dxy     :     0.010669

  2 O s       :     3.562362  s :     3.562362
      pz      :     1.633191  p :     4.621793
      px      :     1.521991
      py      :     1.466611
      dz2     :     0.007494  d :     0.055144
      dxz     :     0.002564
      dyz     :     0.016475
      dx2y2   :     0.016696
      dxy     :     0.011914

  3 N s       :     3.064241  s :     3.064241
      pz      :     1.506122  p :     3.881190
      px      :     1.206324
      py      :     1.168744
      dz2     :     0.006653  d :     0.088016
      dxz     :     0.016421
      dyz     :     0.010330
      dx2y2   :     0.028479
      dxy     :     0.026133

  4 N s       :     3.218348  s :     3.218348
      pz      :     1.397594  p :     3.978613
      px      :     1.151832
      py      :     1.429187
      dz2     :     0.006042  d :     0.058843
      dxz     :     0.020106
      dyz     :     0.008508
      dx2y2   :     0.007443
      dxy     :     0.016744

  5 C s       :     2.865788  s :     2.865788
      pz      :     1.056848  p :     3.112233
      px      :     1.016975
      py      :     1.038410
      dz2     :     0.007920  d :     0.100354
      dxz     :     0.012411
      dyz     :     0.016961
      dx2y2   :     0.034886
      dxy     :     0.028175

  6 C s       :     2.889577  s :     2.889577
      pz      :     1.037324  p :     3.131866
      px      :     1.032997
      py      :     1.061545
      dz2     :     0.008034  d :     0.084227
      dxz     :     0.021887
      dyz     :     0.023150
      dx2y2   :     0.010320
      dxy     :     0.020836

  7 C s       :     2.858516  s :     2.858516
      pz      :     1.008317  p :     3.063841
      px      :     1.019747
      py      :     1.035777
      dz2     :     0.008984  d :     0.106346
      dxz     :     0.013583
      dyz     :     0.018072
      dx2y2   :     0.027034
      dxy     :     0.038674

  8 C s       :     2.841712  s :     2.841712
      pz      :     1.032025  p :     3.016117
      px      :     1.037000
      py      :     0.947092
      dz2     :     0.012224  d :     0.138148
      dxz     :     0.018195
      dyz     :     0.023339
      dx2y2   :     0.035401
      dxy     :     0.048988

  9 C s       :     2.884491  s :     2.884491
      pz      :     1.037809  p :     3.027269
      px      :     0.962139
      py      :     1.027321
      dz2     :     0.012697  d :     0.126917
      dxz     :     0.027346
      dyz     :     0.036515
      dx2y2   :     0.021411
      dxy     :     0.028948

 10 C s       :     2.886904  s :     2.886904
      pz      :     1.037177  p :     3.044869
      px      :     0.946350
      py      :     1.061341
      dz2     :     0.014156  d :     0.116390
      dxz     :     0.019987
      dyz     :     0.013466
      dx2y2   :     0.036130
      dxy     :     0.032651

 11 C s       :     2.889491  s :     2.889491
      pz      :     1.064040  p :     3.167631
      px      :     1.050360
      py      :     1.053231
      dz2     :     0.006139  d :     0.081017
      dxz     :     0.011397
      dyz     :     0.010943
      dx2y2   :     0.026008
      dxy     :     0.026530

 12 C s       :     2.888802  s :     2.888802
      pz      :     1.021565  p :     3.117743
      px      :     1.037794
      py      :     1.058384
      dz2     :     0.005854  d :     0.085485
      dxz     :     0.012137
      dyz     :     0.012696
      dx2y2   :     0.026956
      dxy     :     0.027843

 13 C s       :     2.853496  s :     2.853496
      pz      :     0.993187  p :     2.916528
      px      :     1.044371
      py      :     0.878970
      dz2     :     0.014360  d :     0.162847
      dxz     :     0.018888
      dyz     :     0.028953
      dx2y2   :     0.046692
      dxy     :     0.053954

 14 C s       :     2.896031  s :     2.896031
      pz      :     1.031064  p :     3.120897
      px      :     1.045927
      py      :     1.043906
      dz2     :     0.006764  d :     0.079991
      dxz     :     0.006021
      dyz     :     0.015676
      dx2y2   :     0.024316
      dxy     :     0.027215

 15 C s       :     2.855863  s :     2.855863
      pz      :     0.869591  p :     2.713915
      px      :     0.834272
      py      :     1.010052
      dz2     :     0.070062  d :     0.285657
      dxz     :     0.035289
      dyz     :     0.081771
      dx2y2   :     0.039717
      dxy     :     0.058818

 16 C s       :     2.913815  s :     2.913815
      pz      :     1.077006  p :     3.015017
      px      :     1.014295
      py      :     0.923716
      dz2     :     0.024279  d :     0.114014
      dxz     :     0.023884
      dyz     :     0.012905
      dx2y2   :     0.019667
      dxy     :     0.033279

 17 H s       :     0.874164  s :     0.874164
      pz      :     0.016196  p :     0.039675
      px      :     0.007352
      py      :     0.016127

 18 H s       :     0.889395  s :     0.889395
      pz      :     0.010967  p :     0.038446
      px      :     0.012444
      py      :     0.015035

 19 H s       :     0.901365  s :     0.901365
      pz      :     0.017144  p :     0.040360
      px      :     0.006542
      py      :     0.016674

 20 H s       :     0.887364  s :     0.887364
      pz      :     0.009053  p :     0.042184
      px      :     0.015659
      py      :     0.017473

 21 H s       :     0.769065  s :     0.769065
[...]
 21 H      0.7417     1.0000     0.2583     0.9244     0.9244    -0.0000
 22 H      0.8911     1.0000     0.1089     0.9766     0.9766     0.0000
 23 H      0.9241     1.0000     0.0759     0.9584     0.9584    -0.0000
 24 H      0.9128     1.0000     0.0872     0.9643     0.9643    -0.0000
 25 H      0.7635     1.0000     0.2365     0.9198     0.9198     0.0000
 26 H      0.7678     1.0000     0.2322     0.9232     0.9232     0.0000
 27 H      0.6762     1.0000     0.3238     0.9149     0.9149    -0.0000
 28 H      0.8863     1.0000     0.1137     0.9549     0.9549    -0.0000
 29 H      0.8863     1.0000     0.1137     0.9554     0.9554     0.0000
 30 H      0.8911     1.0000     0.1089     0.9499     0.9499    -0.0000

  Mayer bond orders larger than 0.100000
B(  0-O , 13-C ) :   0.9291 B(  0-O , 16-C ) :   0.9224 B(  1-O , 15-C ) :   1.0885 
B(  1-O , 27-H ) :   0.8508 B(  2-O , 15-C ) :   1.9020 B(  3-N ,  8-C ) :   1.0020 
B(  3-N , 10-C ) :   1.0945 B(  3-N , 21-H ) :   0.8990 B(  4-N ,  9-C ) :   1.0018 
B(  4-N , 25-H ) :   0.9101 B(  4-N , 26-H ) :   0.9078 B(  5-C ,  6-C ) :   0.9953 
B(  5-C ,  7-C ) :   1.2774 B(  5-C , 10-C ) :   1.5480 B(  6-C ,  9-C ) :   0.9614 
B(  6-C , 17-H ) :   0.9331 B(  6-C , 18-H ) :   0.9429 B(  7-C ,  8-C ) :   1.3071 
B(  7-C , 11-C ) :   1.3082 B(  8-C , 12-C ) :   1.3422 B(  9-C , 15-C ) :   0.9188 
B(  9-C , 19-H ) :   0.9309 B( 10-C , 20-H ) :   0.9432 B( 11-C , 13-C ) :   1.4073 
B( 11-C , 22-H ) :   0.9099 B( 12-C , 14-C ) :   1.4937 B( 12-C , 23-H ) :   0.9360 
B( 13-C , 14-C ) :   1.3285 B( 14-C , 24-H ) :   0.9344 B( 16-C , 28-H ) :   0.9656 
B( 16-C , 29-H ) :   0.9412 B( 16-C , 30-H ) :   0.9454 

-------
TIMINGS
-------

Total SCF time: 0 days 0 hours 2 min 22 sec 

Total time                  ....     142.186 sec
Sum of individual times     ....     138.941 sec  ( 97.7%)

SCF preparation             ....       0.437 sec  (  0.3%)
Fock matrix formation       ....     137.190 sec  ( 96.5%)
  Startup                   ....       0.012 sec  (  0.0% of F)
  Split-RI-J                ....      14.460 sec  ( 10.5% of F)
  Chain of spheres X        ....     108.517 sec  ( 79.1% of F)
  XC integration            ....      17.197 sec  ( 12.5% of F)
    XC Preparation          ....       0.000 sec  (  0.0% of XC)
    Basis function eval.    ....       6.632 sec  ( 38.6% of XC)
    Density eval.           ....       4.521 sec  ( 26.3% of XC)
    XC-Functional eval.     ....       0.738 sec  (  4.3% of XC)
    XC-Potential eval.      ....       4.169 sec  ( 24.2% of XC)
Diagonalization             ....       0.000 sec  (  0.0%)
Density matrix formation    ....       0.096 sec  (  0.1%)
Total Energy calculation    ....       0.040 sec  (  0.0%)
Population analysis         ....       0.469 sec  (  0.3%)
Orbital Transformation      ....       0.069 sec  (  0.0%)
Orbital Orthonormalization  ....       0.000 sec  (  0.0%)
DIIS solution               ....       0.331 sec  (  0.2%)
  MO trafo                  ....       0.000 sec  (  0.0 % of DIIS)
  Orb grad                  ....       0.000 sec  (  0.0 % of DIIS)
  Energy W gradient         ....       0.000 sec  (  0.0 % of DIIS)
  DIIS error                ....       0.072 sec  ( 21.9 % of DIIS)
  DIIS work                 ....       0.214 sec  ( 64.6 % of DIIS)
  Form Q                    ....       0.000 sec  (  0.0 % of DIIS)
  Form QpQm                 ....       0.000 sec  (  0.0 % of DIIS)
  Exp/Cayley                ....       0.000 sec  (  0.0 % of DIIS)
  Orb update                ....       0.000 sec  (  0.0 % of DIIS)
  Wake-sleep                ....       0.009 sec  (  2.8 % of DIIS)
SOSCF solution              ....       0.308 sec  (  0.2%)
  MO trafo                  ....       0.108 sec  ( 34.9 % of SOSCF)
  Orb grad                  ....       0.009 sec  (  2.8 % of SOSCF)
  Rot update                ....       0.037 sec  ( 12.1 % of SOSCF)
  Step                      ....       0.142 sec  ( 46.2 % of SOSCF)
Finished LeanSCF after 142.2 sec

Maximum memory used throughout the entire LEANSCF-calculation: 39.7 MB


-------------------------------------------------------------------------------
                          DFT DISPERSION CORRECTION                            
                                                                               
                              DFTD3 V3.1  Rev 1                                
                          USING Becke-Johnson damping                          
-------------------------------------------------------------------------------
The B3LYP functional is recognized
Active option DFTDOPT                   ...         4   

molecular C6(AA) [au] = 9928.296878 


            DFT-D V3
 parameters
 s6 scaling factor         :     1.0000 
 a1 scaling factor         :     0.3981 
 s8 scaling factor         :     1.9889 
 a2 scaling factor         :     4.4211 
 ad hoc parameters k1-k3   :    16.0000     1.3333    -4.0000 

 Edisp/kcal,au: -39.580743362779  -0.063075922797 
 E6   /kcal   : -18.852295409 
 E8   /kcal   : -20.728447954 
 % E8         :  52.370031972 

-------------------------   ----------------
Dispersion correction           -0.063075923
-------------------------   ----------------


-------------------------   --------------------
FINAL SINGLE POINT ENERGY      -800.491028750252
-------------------------   --------------------



           ************************************************************
           *        Program running with 2 parallel MPI-processes     *
           *              working on a common directory               *
           ************************************************************
------------------------------------------------------------------------------
                            ORCA SCF RESPONSE CALCULATION
------------------------------------------------------------------------------

GBWName                                 ... /kaggle/working/Trp-OMe-2/Trp-OMe_InterFrag.gbw
Number of atoms                         ...     31
Number of basis functions               ...    308
Max core memory                         ...   3000 MB

Electric field perturbation             ... YES
Quadrupolar field perturbation          ...  NO
Magnetic field perturbation (no GIAO)   ...  NO
Magnetic field perturbation (with GIAO) ...  NO
Linear momentum (velocity) perturbation ...  NO
Spin-orbit coupling perturbation        ...  NO
Choice of electric origin               ... Center of mass
Position of electric origin             ...     0.122368    -0.141693    -0.018674
Choice of magnetic origin               ... GIAO
Position of magnetic origin             ...     0.000000     0.000000     0.000000
Nuclear geometric perturbations         ...  NO (  93 perturbations)
Nucleus-orbit perturbations             ...  NO (   0 perturbations)
Spin-dipole/Fermi contact perturbations ...  NO (   0 perturbations)

Total number of real perturbations      ...      3
Total number of imaginary perturbations ...      0
Total number of triplet perturbations   ...      0
Total number of SOC perturbations       ...      0

Using XC Grid                  ... (/kaggle/working/Trp-OMe-2/Trp-OMe_InterFrag.grid_cpscf.tmp) 
Recalculating density on grid  ... (/kaggle/working/Trp-OMe-2/Trp-OMe_InterFrag.grho_cpscf0.tmp) done
Calculating the xc-kernel      ... (/kaggle/working/Trp-OMe-2/Trp-OMe_InterFrag.fxc_cpscf0.tmp) done

                                **********************
                                * REAL PERTURBATIONS *
                                **********************



-------------------
SHARK CP-SCF DRIVER
-------------------

Dimension of the orbital basis          ...    308
Dimension of the CPSCF-problem          ...  15252
Number of operators                     ...      1
Max. number of iterations               ...    128
Convergence Tolerance                   ... 1.0e-04
Number of perturbations                 ...      3
Perturbation type                       ... REAL

----------------------------
POPLE LINEAR EQUATION SOLVER
----------------------------

  ITERATION   0:   ||err||_max =   2.7683e+01 (   6.0 sec   0/  3 done)
  ITERATION   1:   ||err||_max =   1.4193e+00 (   5.4 sec   0/  3 done)
  ITERATION   2:   ||err||_max =   5.4583e-01 (   5.5 sec   0/  3 done)
  ITERATION   3:   ||err||_max =   1.4869e-01 (   5.4 sec   0/  3 done)
  ITERATION   4:   ||err||_max =   5.7730e-02 (   5.5 sec   0/  3 done)
  ITERATION   5:   ||err||_max =   1.9851e-02 (   5.4 sec   0/  3 done)
  ITERATION   6:   ||err||_max =   7.6294e-03 (   5.6 sec   0/  3 done)
  ITERATION   7:   ||err||_max =   2.7780e-03 (   5.4 sec   0/  3 done)
  ITERATION   8:   ||err||_max =   1.0412e-03 (   5.5 sec   0/  3 done)
  ITERATION   9:   ||err||_max =   3.4837e-04 (   5.5 sec   0/  3 done)
  ITERATION  10:   ||err||_max =   1.2869e-04 (   5.6 sec   2/  3 done)
  ITERATION  11:   ||err||_max =   3.6985e-05 (   4.3 sec   3/  3 done)

CP-SCF equations solved in  65.3 sec
Response densities calculated in   0.0 sec

Maximum memory used throughout the entire SCFRESP-calculation: 45.6 MB


           ************************************************************
           *        Program running with 2 parallel MPI-processes     *
           *              working on a common directory               *
           ************************************************************

------------------------------------------------------------------------------
                              ORCA PROPERTY CALCULATIONS
------------------------------------------------------------------------------

GBWName                                 ... /kaggle/working/Trp-OMe-2/Trp-OMe_InterFrag.gbw
Number of atoms                         ...     31
Number of basis functions               ...    308
Max core memory                         ...   3000 MB

Electric properties:
Dipole moment                           ... YES
Quadrupole moment                       ...  NO
Static polarizability (Dipole/Dipole)   ... YES
Static polarizability (Dipole/Quad.)    ...  NO
Static polarizability (Quad./Quad.)     ...  NO
Static polarizability (Velocity)        ...  NO
Static hyperpolarizability              ...  NO

Atomic electric properties:
Dipole moment                           ...  NO
Quadrupole moment                       ...  NO
Static polarizability                   ...  NO

Choice of electric origin               ... Center of mass
Position of electric origin             ...     0.122368    -0.141693    -0.018674

General magnetic properties:
Magnetizability                         ...  NO

EPR properties:
g-Tensor (aka g-matrix)                 ...  NO
Zero-Field splitting spin-orbit         ...  NO
Zero-field splitting spin-spin          ...  NO
Hyperfine couplings                     ...  NO (   0 nuclei)
Quadrupole couplings                    ...  NO (   0 nuclei)
Contact density                         ...  NO (   0 nuclei)

NMR properties:
Chemical shifts                         ...  NO (   0 nuclei)
Spin-rotation constants                 ...  NO (   0 nuclei)
Spin-spin couplings                     ...  NO (   0 nuclei,    0 pairs)

Choice of magnetic origin               ... GIAO
Position of magnetic origin             ...     0.000000     0.000000     0.000000

Properties with geometric perturbations:
SCF Hessian                             ...  NO
IR spectrum                             ...  NO
VCD spectrum                            ...  NO
X-ray spectroscopy properties:
SCF XES/XAS/RIXS spectra                ...  NO

SCF SOC stabilization energy            ...  NO
Diagonal Born-Oppenheimer correction    ...  NO

-------------
DIPOLE MOMENT
-------------

Method             : SCF
Type of density    : Electron Density
Multiplicity       :   1
Irrep              :   0
Energy             :  -800.4279528274546465 Eh
Basis              : AO
                                X                 Y                 Z
Electronic contribution:     -3.637739994       3.012053871       3.098737893
Nuclear contribution   :      4.142460580      -1.538454603      -2.497330505
                        -----------------------------------------
Total Dipole Moment    :      0.504720585       1.473599268       0.601407388
                        -----------------------------------------
Magnitude (a.u.)       :      1.669709112
Magnitude (Debye)      :      4.244063282



--------------------
Rotational spectrum 
--------------------
 
Rotational constants in cm-1:             0.020892             0.013429             0.009196 
Rotational constants in MHz :           626.315466           402.592618           275.681463 

Dipole components along the rotational axes: 
x,y,z [a.u.] :     0.531969    -1.456349     0.619664 
x,y,z [Debye]:     1.352157    -3.701746     1.575062 

 

Dipole moment calculation done in   0.0 sec 


---------------------------------------------------
STATIC POLARIZABILITY TENSOR (Dipole/Dipole)
---------------------------------------------------

Method             : SCF
Type of density    : Electron Density
Type of derivative : Electric Field (Direction=X)
Multiplicity       :   1
Irrep              :   0
Basis              : AO

The raw cartesian tensor (atomic units):
     172.200797393        15.566609921       -22.892631347  
      15.566609921       172.858719142         9.363805051  
     -22.892631347         9.363805051        88.008948194  
diagonalized tensor: 
      80.351496174       163.591750225       189.125218330  

Orientation: 
       0.261823276        -0.608934040        -0.748764253  
      -0.140705751         0.743454749        -0.653817197  
       0.954803888         0.276539997         0.108973237  

Isotropic polarizability : 144.35615


Polarizability tensor calculation done in   0.0 sec 

Maximum memory used throughout the entire PROP-calculation: 20.8 MB

--------------------------------
SUGGESTED CITATIONS FOR THIS RUN
--------------------------------

Below you find a list of papers that are relevant to this ORCA run
We neither can nor want to force you to cite these papers, but we appreciate if you do
You receive ORCA, which is the product of decades of hard work by many enthusiastic individuals, for free
The only thing we kindly ask in return is that you cite our papers,
We deeply appreciate it, if you show your appreciation for ORCA by not just citing the generic ORCA reference.

Please note that relegating all ORCA citations to the supporting information does *not* help us.
SI sections are not indexed - citations you put there will not count into any citation statistics
But we need these citations in order to attract the funding resources that allow us to do what we are doing

Therefore, if you are a happy ORCA user, please consider citing a few of the papers listed below in the main body of your paper

In addition to the list printed below, the program has created the file /kaggle/working/Trp-OMe-2/Trp-OMe_InterFrag.bibtex that contains the list in bibtex format
You can import this file easily into all common literature databanks and citation aid programs

It goes without saying that in many instances, there are alternative algorithms to achieve similar
results as the ones you have gotten from ORCA. It is, of course, also the case that in some instances
ORCA just re-implements algorithms worked out by others. We are fully aware of that and we are also
fully appreciative of our colleagues work. Hence this citation list should not be read as indicating
that the listed papers, which are focused on our own work, are the only ones worth citing. It simply
meant to make it easier for users to cite ORCA specific papers. It is not a substitute for doing your
own literature research and citing the relevant literature in a scientifically appropriate manner.

List of essential papers. We consider these as the minimum necessary citations

  1. Neese, F.
     Software update: the ORCA program system, version 6.0
     WIRES Comput. Molec. Sci. 2025 15(1), e70019
     doi.org/10.1002/wcms.70019

List of papers to cite with high priority. The work reported in these papers was absolutely
necessary for this run to complete.
Our perspective: the developers of density functionals and basis sets usually get cited in chemistry papers
Good! But without the algorithms to do something with them, the functionals or basis sets would not do anything.
Hence, in our opinion, the algorithm design and method developments papers are equally worthy of getting cited

  1. Neese, F.
     An improvement of the resolution of the identity approximation for the formation of the Coulomb matrix
     J. Comp. Chem. 2003 24(14), 1740-1747
     doi.org/10.1002/jcc.10318
  2. Neese, F.; Wennmohs, F.; Hansen, A.; Becker, U.
     Efficient, approximate and parallel Hartree-Fock and hybrid DFT calculations. A 'chain-of-spheres' algorithm for the Hartree-Fock exchange
     Chem. Phys. 2009 356(1-3), 98-109
     doi.org/10.1016/j.chemphys.2008.10.036
  3. Grimme, S.; Antony, J.; Ehrlich, S.; Krieg, H.
     A consistent and accurate ab initio parametrization of density functional dispersion correction (DFT-D) for the 94 elements H-Pu
     J. Chem. Phys. 2010 132 , 154104
     doi.org/10.1063/1.3382344
  4. Grimme, S.; Ehrlich, S.; Goerigk, L.
     Effect of the damping function in dispersion corrected density functional theory
     J. Comput. Chem. 2011 32(7), 1456-1465
     doi.org/10.1002/jcc.21759
  5. Helmich-Paris, B.; de Souza, B.; Neese, F.; Izsák, R.
     An improved chain of spheres for exchange algorithm
     J. Chem. Phys. 2021 155(10), 104109
     doi.org/10.1063/5.0058766
  6. Neese, F.
     The SHARK Integral Generation and Digestion System
     J. Comp. Chem. 2022 44(3), 381
     doi.org/10.1002/jcc.26942

List of suggested additional citations. These are papers that are important in the 'surrounding' of 
of this run, or papers that preceded the highly important papers. If you like your results we are grateful for a citation.

  1. Izsak, R.; Neese, F.
     An overlap fitted chain of spheres exchange method
     J. Chem. Phys. 2011 135 , 144105
     doi.org/10.1063/1.3646921
  2. Izsak, R.; Hansen, A.; Neese, F.
     The resolution of identity and chain of spheres approximations for the LPNO-CCSD singles Fock term
     Molec. Phys. 2012 110 , 2413-2417
     doi.org/10.1080/00268976.2012.687466
  3. Neese, F.
     The ORCA program system
     WIRES Comput. Molec. Sci. 2012 2(1), 73-78
     doi.org/10.1002/wcms.81
  4. Izsak, R.; Neese, F.; Klopper, W.
     Robust fitting techniques in the chain of spheres approximation to the Fock exchange: The role of the complementary space
     J. Chem. Phys. 2013 139 , 
     doi.org/10.1063/1.4819264
  5. Neese, F.
     Software update: the ORCA program system, version 4.0
     WIRES Comput. Molec. Sci. 2018 8(1), 1-6
     doi.org/10.1002/wcms.1327
  6. Neese, F.; Wennmohs, F.; Becker, U.; Riplinger, C.
     The ORCA quantum chemistry program package
     J. Chem. Phys. 2020 152(22), 224108
     doi.org/10.1063/5.0004608
  7. Neese, F.
     Software update: The ORCA program system—Version 5.0
     WIRES Comput. Molec. Sci. 2022 12(1), e1606
     doi.org/10.1002/wcms.1606

List of optional additional citations

  1. Neese, F.
     Approximate second-order SCF convergence for spin unrestricted wavefunctions
     Chem. Phys. Lett. 2000 325(1-3), 93-98
     doi.org/10.1016/s0009-2614(00)00662-x

Timings for individual modules:

Sum of individual times          ...      215.835 sec (=   3.597 min)
Startup calculation              ...        4.828 sec (=   0.080 min)   2.2 %
SCF iterations                   ...      144.268 sec (=   2.404 min)  66.8 %
SCF Response                     ...       66.231 sec (=   1.104 min)  30.7 %
Property calculations            ...        0.509 sec (=   0.008 min)   0.2 %
                             ****ORCA TERMINATED NORMALLY****
TOTAL RUN TIME: 0 days 0 hours 3 minutes 36 seconds 413 msec
