[Molden Format]
[Title]
 Molden file created by orca_2mkl for BaseName=/kaggle/working/Phe-F-2/Phe-F_InterFrag

[Atoms] AU
F    1   9          7.6417312321        -1.7763595734        -0.7082334502 
O    2   8         -2.8536622068        -2.3142361024        -2.6669780517 
O    3   8         -5.3419572039        -2.5856631362         0.7814716762 
N    4   7         -6.5037589413         2.5602425402        -0.1304723615 
C    5   6         -2.0020816909         2.2471470452         1.4516895058 
C    6   6         -3.9745022405         1.5455011803        -0.6095954152 
C    7   6          0.6038733245         1.2101825059         0.9407302359 
C    8   6          1.3712646513        -1.1007144504         1.9849059701 
C    9   6          2.2667794100         2.4824141694        -0.6828771049 
C   10   6         -4.1692120624        -1.3096633588        -0.7422485206 
C   11   6          3.7402555684        -2.1247664910         1.4417533258 
C   12   6          4.6429097124         1.4914682409        -1.2508569712 
C   13   6          5.3317413444        -0.8012325424        -0.1718006720 
H   14   1         -2.7142797866         1.5516314518         3.2667620088 
H   15   1         -1.9503598867         4.3138365829         1.5414514972 
H   16   1         -3.2967803084         2.2394086166        -2.4322816248 
H   17   1          0.0991104665        -2.1145657493         3.2373011784 
H   18   1          1.7002243972         4.2745964197        -1.5089141926 
H   19   1         -6.3213172214         4.4521834332         0.1775605573 
H   20   1         -7.1128138948         1.8203523978         1.5418313321 
H   21   1          4.3518692111        -3.9069445312         2.2492899946 
H   22   1          5.9457209242         2.4668503849        -2.4973694620 
H   23   1         -2.9830347476        -4.1499406353        -2.5521941966 
[GTO]
  1 0
s   6 1.0 
     7001.7130900000         0.9926451524
     1051.3660900000         1.8312282616
      239.2856900000         2.9661117939
       67.3974453000         3.9092612383
       21.5199573000         3.3558966734
        7.4031013000         1.1407074825
s   3 1.0 
       20.8479528000        -0.7545105751
        4.8083083400        -0.3389211134
        1.3440698600         1.0041546559
p   3 1.0 
       20.8479528000         4.5483779701
        4.8083083400         3.5107202883
        1.3440698600         1.4903462703
s   1 1.0 
        0.3581513900         0.3299590716
p   1 1.0 
        0.3581513900         0.3949329681
d   1 1.0 
        0.8000000000         1.9292013661

  2 0
s   6 1.0 
     5484.6717000000         0.8317352088
      825.2349500000         1.5308074829
      188.0469600000         2.4771490916
       52.9645000000         3.2562802462
       16.8975700000         2.7928936336
        5.7996353000         0.9549376963
s   3 1.0 
       15.5396160000        -0.6179336976
        3.5999336000        -0.2757210088
        1.0137618000         0.8142076427
p   3 1.0 
       15.5396160000         3.1169455889
        3.5999336000         2.4014372483
        1.0137618000         1.0543605133
s   1 1.0 
        0.2700058000         0.2669561389
p   1 1.0 
        0.2700058000         0.2774319373
d   1 1.0 
        0.8000000000         1.9292013661

  3 0
s   6 1.0 
     5484.6717000000         0.8317352088
      825.2349500000         1.5308074829
      188.0469600000         2.4771490916
       52.9645000000         3.2562802462
       16.8975700000         2.7928936336
        5.7996353000         0.9549376963
s   3 1.0 
       15.5396160000        -0.6179336976
        3.5999336000        -0.2757210088
        1.0137618000         0.8142076427
p   3 1.0 
       15.5396160000         3.1169455889
        3.5999336000         2.4014372483
        1.0137618000         1.0543605133
s   1 1.0 
        0.2700058000         0.2669561389
p   1 1.0 
        0.2700058000         0.2774319373
d   1 1.0 
        0.8000000000         1.9292013661

  4 0
s   6 1.0 
     4173.5110000000         0.6790079572
      627.4579000000         1.2504643275
      142.9021000000         2.0203691378
       40.2343300000         2.6442129843
       12.8202100000         2.2650039968
        4.3904370000         0.7791872309
s   3 1.0 
       11.6263580000        -0.5158738103
        2.7162800000        -0.2550239186
        0.7722180000         0.6727344163
p   3 1.0 
       11.6263580000         2.0680595460
        2.7162800000         1.6100106206
        0.7722180000         0.7644899877
s   1 1.0 
        0.2120313000         0.2226947990
p   1 1.0 
        0.2120313000         0.2050879094
d   1 1.0 
        0.8000000000         1.9292013661

  5 0
s   6 1.0 
     3047.5249000000         0.5363343823
      457.3695100000         0.9894506076
      103.9486900000         1.5972822308
       29.2101550000         2.0791870615
        9.2866630000         1.7741742532
        3.1639270000         0.6125798260
s   3 1.0 
        7.8682724000        -0.3995563516
        1.8812885000        -0.1841552393
        0.5442493000         0.5163903794
p   3 1.0 
        7.8682724000         1.2960827175
        1.8812885000         0.9937536282
        0.5442493000         0.4959527138
s   1 1.0 
        0.1687144000         0.1876178721
p   1 1.0 
        0.1687144000         0.1541275509
d   1 1.0 
        0.8000000000         1.9292013661

  6 0
s   6 1.0 
     3047.5249000000         0.5363343823
      457.3695100000         0.9894506076
      103.9486900000         1.5972822308
       29.2101550000         2.0791870615
        9.2866630000         1.7741742532
        3.1639270000         0.6125798260
s   3 1.0 
        7.8682724000        -0.3995563516
        1.8812885000        -0.1841552393
        0.5442493000         0.5163903794
p   3 1.0 
        7.8682724000         1.2960827175
        1.8812885000         0.9937536282
        0.5442493000         0.4959527138
s   1 1.0 
        0.1687144000         0.1876178721
p   1 1.0 
        0.1687144000         0.1541275509
d   1 1.0 
        0.8000000000         1.9292013661

  7 0
s   6 1.0 
     3047.5249000000         0.5363343823
      457.3695100000         0.9894506076
      103.9486900000         1.5972822308
       29.2101550000         2.0791870615
        9.2866630000         1.7741742532
        3.1639270000         0.6125798260
s   3 1.0 
        7.8682724000        -0.3995563516
        1.8812885000        -0.1841552393
        0.5442493000         0.5163903794
p   3 1.0 
        7.8682724000         1.2960827175
        1.8812885000         0.9937536282
        0.5442493000         0.4959527138
s   1 1.0 
        0.1687144000         0.1876178721
p   1 1.0 
        0.1687144000         0.1541275509
d   1 1.0 
        0.8000000000         1.9292013661

  8 0
s   6 1.0 
     3047.5249000000         0.5363343823
      457.3695100000         0.9894506076
      103.9486900000         1.5972822308
       29.2101550000         2.0791870615
        9.2866630000         1.7741742532
        3.1639270000         0.6125798260
s   3 1.0 
        7.8682724000        -0.3995563516
        1.8812885000        -0.1841552393
        0.5442493000         0.5163903794
p   3 1.0 
        7.8682724000         1.2960827175
        1.8812885000         0.9937536282
        0.5442493000         0.4959527138
s   1 1.0 
        0.1687144000         0.1876178721
p   1 1.0 
        0.1687144000         0.1541275509
d   1 1.0 
        0.8000000000         1.9292013661

  9 0
s   6 1.0 
     3047.5249000000         0.5363343823
      457.3695100000         0.9894506076
      103.9486900000         1.5972822308
       29.2101550000         2.0791870615
        9.2866630000         1.7741742532
        3.1639270000         0.6125798260
s   3 1.0 
        7.8682724000        -0.3995563516
        1.8812885000        -0.1841552393
        0.5442493000         0.5163903794
p   3 1.0 
        7.8682724000         1.2960827175
        1.8812885000         0.9937536282
        0.5442493000         0.4959527138
s   1 1.0 
        0.1687144000         0.1876178721
p   1 1.0 
        0.1687144000         0.1541275509
d   1 1.0 
        0.8000000000         1.9292013661

 10 0
s   6 1.0 
     3047.5249000000         0.5363343823
      457.3695100000         0.9894506076
      103.9486900000         1.5972822308
       29.2101550000         2.0791870615
        9.2866630000         1.7741742532
        3.1639270000         0.6125798260
s   3 1.0 
        7.8682724000        -0.3995563516
        1.8812885000        -0.1841552393
        0.5442493000         0.5163903794
p   3 1.0 
        7.8682724000         1.2960827175
        1.8812885000         0.9937536282
        0.5442493000         0.4959527138
s   1 1.0 
        0.1687144000         0.1876178721
p   1 1.0 
        0.1687144000         0.1541275509
d   1 1.0 
        0.8000000000         1.9292013661

 11 0
s   6 1.0 
     3047.5249000000         0.5363343823
      457.3695100000         0.9894506076
      103.9486900000         1.5972822308
       29.2101550000         2.0791870615
        9.2866630000         1.7741742532
        3.1639270000         0.6125798260
s   3 1.0 
        7.8682724000        -0.3995563516
        1.8812885000        -0.1841552393
        0.5442493000         0.5163903794
p   3 1.0 
        7.8682724000         1.2960827175
        1.8812885000         0.9937536282
        0.5442493000         0.4959527138
s   1 1.0 
        0.1687144000         0.1876178721
p   1 1.0 
        0.1687144000         0.1541275509
d   1 1.0 
        0.8000000000         1.9292013661

 12 0
s   6 1.0 
     3047.5249000000         0.5363343823
      457.3695100000         0.9894506076
      103.9486900000         1.5972822308
       29.2101550000         2.0791870615
        9.2866630000         1.7741742532
        3.1639270000         0.6125798260
s   3 1.0 
        7.8682724000        -0.3995563516
        1.8812885000        -0.1841552393
        0.5442493000         0.5163903794
p   3 1.0 
        7.8682724000         1.2960827175
        1.8812885000         0.9937536282
        0.5442493000         0.4959527138
s   1 1.0 
        0.1687144000         0.1876178721
p   1 1.0 
        0.1687144000         0.1541275509
d   1 1.0 
        0.8000000000         1.9292013661

 13 0
s   6 1.0 
     3047.5249000000         0.5363343823
      457.3695100000         0.9894506076
      103.9486900000         1.5972822308
       29.2101550000         2.0791870615
        9.2866630000         1.7741742532
        3.1639270000         0.6125798260
s   3 1.0 
        7.8682724000        -0.3995563516
        1.8812885000        -0.1841552393
        0.5442493000         0.5163903794
p   3 1.0 
        7.8682724000         1.2960827175
        1.8812885000         0.9937536282
        0.5442493000         0.4959527138
s   1 1.0 
        0.1687144000         0.1876178721
p   1 1.0 
        0.1687144000         0.1541275509
d   1 1.0 
        0.8000000000         1.9292013661

 14 0
s   3 1.0 
       18.7311370000         0.2149354183
        2.8253937000         0.3645711272
        0.6401217000         0.4150514277
s   1 1.0 
        0.1612778000         0.1813806839
p   1 1.0 
        1.1000000000         1.6057611426

 15 0
s   3 1.0 
       18.7311370000         0.2149354183
        2.8253937000         0.3645711272
        0.6401217000         0.4150514277
s   1 1.0 
        0.1612778000         0.1813806839
p   1 1.0 
        1.1000000000         1.6057611426

 16 0
s   3 1.0 
       18.7311370000         0.2149354183
        2.8253937000         0.3645711272
        0.6401217000         0.4150514277
s   1 1.0 
        0.1612778000         0.1813806839
p   1 1.0 
        1.1000000000         1.6057611426

 17 0
s   3 1.0 
       18.7311370000         0.2149354183
        2.8253937000         0.3645711272
        0.6401217000         0.4150514277
s   1 1.0 
        0.1612778000         0.1813806839
p   1 1.0 
        1.1000000000         1.6057611426

 18 0
s   3 1.0 
       18.7311370000         0.2149354183
        2.8253937000         0.3645711272
        0.6401217000         0.4150514277
s   1 1.0 
        0.1612778000         0.1813806839
p   1 1.0 
        1.1000000000         1.6057611426

 19 0
s   3 1.0 
       18.7311370000         0.2149354183
        2.8253937000         0.3645711272
        0.6401217000         0.4150514277
s   1 1.0 
        0.1612778000         0.1813806839
p   1 1.0 
        1.1000000000         1.6057611426

 20 0
s   3 1.0 
       18.7311370000         0.2149354183
        2.8253937000         0.3645711272
        0.6401217000         0.4150514277
s   1 1.0 
        0.1612778000         0.1813806839
p   1 1.0 
        1.1000000000         1.6057611426

 21 0
s   3 1.0 
       18.7311370000         0.2149354183
        2.8253937000         0.3645711272
        0.6401217000         0.4150514277
s   1 1.0 
        0.1612778000         0.1813806839
p   1 1.0 
        1.1000000000         1.6057611426

 22 0
s   3 1.0 
       18.7311370000         0.2149354183
        2.8253937000         0.3645711272
        0.6401217000         0.4150514277
s   1 1.0 
        0.1612778000         0.1813806839
p   1 1.0 
        1.1000000000         1.6057611426

 23 0
s   3 1.0 
       18.7311370000         0.2149354183
        2.8253937000         0.3645711272
        0.6401217000         0.4150514277
s   1 1.0 
        0.1612778000         0.1813806839
p   1 1.0 
        1.1000000000         1.6057611426

[5D]
[7F]
[9G]
[MO]
 Sym=     1a
 Ene= -2.46934015533255E+01
 Spin= Alpha
 Occup= 2.000000
  1       0.995012294704
  2       0.028591348330
  3      -0.001304065587
  4       0.000549108732
  5       0.000302895535
  6      -0.018316150075
  7       0.004513330185
  8      -0.001900225716
  9      -0.001047752787
 10       0.000370148501
 11       0.000248581060
 12      -0.000229483114
 13      -0.000560481685
 14       0.000539194654
 15       0.000001411944
 16       0.000021484735
 17       0.000000954321
 18       0.000005187333
 19      -0.000001657204
 20      -0.000113067763
 21       0.000019478036
 22      -0.000045891681
 23      -0.000023497581
 24       0.000000035282
 25       0.000002101450
 26      -0.000004812068
 27      -0.000002585681
 28       0.000001541958
 29      -0.000001535691
 30      -0.000017833099
 31       0.000005261366
 32      -0.000001013127
 33      -0.000000931859
 34       0.000134368486
 35       0.000003876498
 36       0.000048496290
 37      -0.000010674401
 38      -0.000002409807
 39       0.000003240488
 40      -0.000002077827
 41      -0.000004447335
 42       0.000001622252
 43      -0.000001664879
 44      -0.000026401242
 45      -0.000012824983
 46       0.000004725697
 47      -0.000001751279
 48       0.000019289855
 49       0.000066901708
 50      -0.000030584276
 51      -0.000011757599
 52      -0.000003049165
 53       0.000001557747
 54       0.000000292951
 55       0.000005934797
 56      -0.000000830594
 57      -0.000013216149
 58      -0.000064932185
 59       0.000073177587
 60      -0.000030161213
 61      -0.000026601342
 62       0.001935193091
 63       0.000756934661
 64      -0.000228798775
 65       0.000053269969
 66      -0.000009727981
 67      -0.000007749926
 68       0.000001869889
 69       0.000014309450
 70      -0.000017344632
 71      -0.000005078887
 72      -0.000054993421
 73       0.000002954380
 74      -0.000002887096
 75      -0.000016113186
 76       0.000136935072
 77       0.000023583640
 78      -0.000067099021
 79       0.000086632893
 80      -0.000008631960
 81      -0.000000802038
 82      -0.000003442028
 83      -0.000001107116
 84       0.000001269616
 85      -0.000033704269
 86      -0.000269731830
 87      -0.000172627087
 88       0.000070645799
 89       0.000041495990
 90       0.002914475659
 91       0.003588558089
 92      -0.001446739934
 93      -0.000893535838
 94      -0.000010965027
 95      -0.000029893713
 96      -0.000066685948
 97      -0.000027559133
 98       0.000005473834
 99       0.000029092231
100       0.000081911944
101      -0.000189905300
102      -0.000005641603
103       0.000097427666
104      -0.007646866183
105      -0.002924887326
106      -0.000286536170
107       0.001635463773
108       0.000001807010
109       0.000027661299
110       0.000011646308
111      -0.000014259633
112      -0.000014954027
113       0.000029572387
114       0.000083996870
115      -0.000150471672
116       0.000149688922
117      -0.000018632967
118      -0.007725181133
119      -0.002156177108
120       0.002515165449
121      -0.000484629887
122       0.000013101734
123      -0.000005279673
124       0.000016600919
125       0.000013557647
126       0.000023666637
127       0.000001791510
128       0.000018952942
129       0.000000339021
130       0.000001239298
131       0.000003206501
132      -0.000115282882
133       0.000099834644
134      -0.000058024142
135      -0.000179108935
136       0.000002276572
137      -0.000001304255
138       0.000004271158
139       0.000005634358
140      -0.000007277088
141      -0.000053213782
142      -0.000448548803
143       0.000158756274
144      -0.000074870991
145      -0.000030639439
146       0.008506676204
147      -0.004482128411
148       0.006423362569
149      -0.001776051733
150      -0.000037830160
151       0.000081711054
152      -0.000184552581
153      -0.000213944688
154      -0.000073551447
155      -0.000053448908
156      -0.000450131721
157       0.000161370602
158      -0.000058974015
159      -0.000042188472
160       0.008507374064
161      -0.006496425883
162      -0.001810374803
163       0.004335900385
164       0.000051394191
165      -0.000162030614
166      -0.000159162341
167      -0.000010974261
168       0.000197859567
169       0.000048616689
170       0.001660864664
171       0.000833562485
172      -0.000351358259
173      -0.000193271069
174      -0.002884713171
175       0.012796634287
176      -0.005432625405
177      -0.002964591816
178      -0.000392361957
179      -0.000319933353
180       0.000021412057
181       0.000459340960
182      -0.000503065977
183      -0.000036848847
184      -0.000189797804
185      -0.000017671465
186       0.000000144459
187       0.000008994146
188      -0.000028749361
189      -0.000134277644
190      -0.000011181968
191       0.000010675339
192      -0.000003560291
193       0.000009951992
194      -0.000004676715
195      -0.000004449480
196       0.000002901793
197      -0.000001574214
198       0.000026444945
199      -0.000302606283
200       0.000068557883
201      -0.000011491604
202      -0.000027979065
203       0.000029288029
204      -0.000326505841
205       0.000057906338
206      -0.000042154332
207      -0.000002401307
208      -0.000011738999
209       0.000063815941
210       0.000000900225
211      -0.000006362618
212       0.000000727376
213      -0.000014986100
214       0.000051738442
215       0.000000229570
216       0.000002891492
217      -0.000003889897
218       0.000364279617
219       0.002319405438
220       0.000057640888
221      -0.000058453114
222       0.000007598614
223       0.000365268675
224       0.002316262742
225       0.000071612341
226       0.000005070616
227      -0.000039063455
228      -0.000005393867
229      -0.000022043774
230       0.000000372372
231      -0.000002198211
232      -0.000001086410
 Sym=     1a
 Ene= -1.91951547834366E+01
 Spin= Alpha
 Occup= 2.000000
  1       0.000000928821
  2       0.000020444467
  3      -0.000000548889
  4      -0.000004001600
  5       0.000003476055
  6      -0.000100312669
  7       0.000022605442
  8       0.000019254164
  9      -0.000030496984
 10      -0.000001767025
 11       0.000002872683
 12      -0.000007140289
 13      -0.000003006176
 14      -0.000006117081
 15       0.995105676185
 16       0.030350548857
 17      -0.001038406884
 18      -0.001010191074
 19       0.001443104453
 20      -0.022013471572
 21       0.003762270437
 22      -0.002324036472
 23      -0.005562872524
 24      -0.000671302376
 25       0.000525088419
 26      -0.000348558884
 27      -0.000710101134
 28       0.000258233378
 29      -0.000591907956
 30      -0.000624724105
 31      -0.000001397289
 32      -0.000176011538
 33       0.000016287583
 34       0.002903943933
 35      -0.000468359354
 36       0.002361228627
 37       0.000664567032
 38      -0.000305465601
 39       0.000168702688
 40      -0.000155028679
 41      -0.000450862700
 42       0.000132415445
 43      -0.000011026206
 44      -0.000146353316
 45      -0.000078500598
 46       0.000154418311
 47      -0.000004050429
 48      -0.000946345138
 49      -0.000341764230
 50      -0.000996125644
 51      -0.000462193098
 52       0.000001502670
 53      -0.000176540748
 54      -0.000033563291
 55      -0.000083476351
 56      -0.000048710115
 57       0.000023991776
 58       0.000223350939
 59       0.000117510716
 60       0.000017468793
 61       0.000020778197
 62      -0.000988202723
 63       0.002472681234
 64      -0.000338636781
 65       0.000304710683
 66       0.000033051074
 67      -0.000075383501
 68      -0.000063066496
 69      -0.000069435393
 70      -0.000078946055
 71      -0.000061298854
 72      -0.000881801475
 73      -0.000019276980
 74       0.000224459232
 75      -0.000179576181
 76       0.002890293885
 77      -0.001083826236
 78      -0.000143647086
 79       0.004417089847
 80       0.000059997860
 81      -0.000009332009
 82      -0.000252377202
 83       0.000092240408
 84       0.000230500344
 85       0.000046913016
 86       0.000512931517
 87      -0.000161351986
 88      -0.000028416790
 89       0.000054492104
 90      -0.001837650215
 91       0.002028327577
 92      -0.000031397873
 93      -0.000902483936
 94       0.000040119513
 95      -0.000044227391
 96      -0.000034047396
 97      -0.000007642308
 98       0.000037112814
 99       0.000019733986
100       0.000265840207
101      -0.000105288020
102      -0.000031762879
103      -0.000054599320
104      -0.000583546382
105      -0.000347394386
106       0.000550341080
107       0.000303301556
108      -0.000014664193
109       0.000004342353
110       0.000028244614
111       0.000014274741
112      -0.000061285765
113       0.000011435226
114       0.000071290473
115       0.000028840372
116       0.000005709056
117      -0.000010047661
118      -0.001154196454
119      -0.000265407750
120       0.000676134377
121      -0.000365996018
122      -0.000004218398
123       0.000024674758
124       0.000030375960
125       0.000008704586
126       0.000000881399
127       0.000042049626
128       0.000051176093
129       0.000220622686
130      -0.000313056068
131      -0.000595129117
132       0.007786253482
133       0.006645468161
134      -0.004427364093
135      -0.009304979671
136      -0.000227745085
137       0.000041501194
138       0.000017932354
139      -0.000389637494
140      -0.000040979619
141       0.000000843987
142      -0.000001271564
143       0.000020449076
144       0.000020733324
145      -0.000004947060
146       0.000350974757
147      -0.000558061270
148      -0.000157980045
149       0.000158214507
150       0.000000968367
151       0.000022711588
152      -0.000011220986
153       0.000009337343
154       0.000012055752
155      -0.000004497125
156      -0.000022231601
157      -0.000018283671
158      -0.000000266883
159       0.000008420684
160       0.000834281597
161      -0.000191395319
162      -0.000134047003
163       0.000182333826
164      -0.000006847604
165      -0.000004287554
166       0.000000615844
167       0.000000165025
168      -0.000005523884
169       0.000002202899
170       0.000025617387
171      -0.000011783324
172       0.000002359201
173       0.000002827360
174      -0.000012543901
175       0.000141915790
176      -0.000354303761
177       0.000208080252
178       0.000007380223
179      -0.000000783797
180      -0.000001063800
181       0.000006121903
182      -0.000000283525
183      -0.000010792151
184       0.000655372618
185      -0.000040941635
186      -0.000026510421
187      -0.000055275365
188       0.000095451857
189       0.000134014854
190      -0.000088405829
191       0.000009691501
192       0.000006223339
193       0.000091617325
194       0.001572719050
195      -0.000029583126
196       0.000069100181
197       0.000005290324
198       0.000101016157
199      -0.000028690540
200      -0.000003211147
201      -0.000012221810
202      -0.000032692030
203      -0.000018637775
204      -0.000312298273
205       0.000014750696
206       0.000008196108
207      -0.000005618374
208       0.000174046190
209       0.000535776600
210      -0.000039627446
211      -0.000029198641
212       0.000012398390
213      -0.000157303825
214       0.000216558234
215      -0.000026650495
216      -0.000002190453
217       0.000024154327
218      -0.000023745827
219      -0.000068244209
220       0.000028773373
221       0.000003337653
222       0.000000456250
223      -0.000007833046
224       0.000033522953
225       0.000005635870
226      -0.000002506728
227      -0.000002073719
228      -0.000431473573
229       0.000375953220
230      -0.000281545973
231      -0.001695583213
232       0.000333084818
 Sym=     1a
 Ene= -1.91350509953711E+01
 Spin= Alpha
 Occup= 2.000000
  1      -0.000000432950
  2      -0.000011506424
  3       0.000003008556
  4       0.000007102059
  5       0.000001258593
  6       0.000055758944
  7      -0.000023899988
  8      -0.000046269347
  9       0.000003674380
 10       0.000002239605
 11       0.000001183331
 12      -0.000000935275
 13       0.000007539492
 14       0.000008111655
 15       0.000538815700
 16      -0.000644159091
 17       0.000066113499
 18      -0.000260102085
 19      -0.000033889328
 20       0.003570337293
 21      -0.000088376070
 22       0.002876544704
 23       0.000020456234
 24      -0.000256253326
 25       0.000161045857
 26       0.000310604152
 27      -0.000316161100
 28      -0.000222818770
 29       0.995203333155
 30       0.030870278901
 31       0.001161229256
 32       0.001231580606
 33      -0.001500797919
 34      -0.026966533488
 35      -0.004144519725
 36      -0.004481317797
 37       0.005253013213
 38      -0.000047224755
 39       0.000223804852
 40       0.000242785807
 41      -0.000005912257
 42      -0.000197230039
 43       0.000029844116
 44       0.000259771720
 45      -0.000012366085
 46      -0.000126091688
 47      -0.000055187178
 48       0.000033931448
 49       0.000171958057
 50       0.001350538483
 51       0.000419033334
 52       0.000047289770
 53       0.000148576907
 54       0.000022774159
 55       0.000116147273
 56       0.000137038918
 57       0.000103133762
 58       0.000881978916
 59      -0.000071007399
 60      -0.000173223326
 61       0.000007560554
 62      -0.004159153177
 63      -0.001974372018
 64       0.003167416924
 65       0.000528634006
 66      -0.000076982835
 67       0.000025192504
 68      -0.000056779088
 69       0.000000648247
 70       0.000024397752
 71      -0.000091670800
 72      -0.000932144686
 73       0.000076548490
 74       0.000342987098
 75       0.000133685689
 76       0.006634293366
 77       0.001965159040
 78      -0.003491778607
 79      -0.003650610126
 80       0.000110406262
 81      -0.000035806741
 82       0.000430892038
 83       0.000061463124
 84      -0.000327999075
 85      -0.000064131258
 86      -0.000470592770
 87       0.000065469720
 88       0.000105877162
 89      -0.000053112681
 90       0.003714922724
 91      -0.003715137516
 92      -0.001740233974
 93       0.001993934332
 94      -0.000113129495
 95      -0.000012538868
 96      -0.000047754037
 97       0.000019697633
 98      -0.000042021983
 99       0.000009218111
100       0.000057570821
101      -0.000080288997
102      -0.000112677275
103       0.000000804553
104      -0.001204927971
105       0.002052964643
106      -0.000996487581
107       0.000152050413
108       0.000000641495
109      -0.000039136339
110       0.000025763346
111       0.000017692273
112       0.000071097377
113      -0.000014330931
114      -0.000085398554
115      -0.000035552609
116      -0.000008289715
117      -0.000000064773
118       0.002249671643
119      -0.000334281091
120      -0.000843527412
121       0.001053700466
122       0.000013932589
123      -0.000026713010
124      -0.000032892012
125       0.000003851717
126      -0.000025350401
127       0.000283690262
128       0.000609144582
129      -0.000078065131
130      -0.000220014602
131      -0.000008774875
132       0.007466424664
133      -0.007986193965
134      -0.008813042588
135       0.011029156899
136      -0.000219747252
137       0.000470193600
138       0.000491674357
139      -0.000149471311
140      -0.000329832684
141      -0.000002850036
142      -0.000044747559
143       0.000033855466
144      -0.000011815411
145       0.000026111268
146      -0.000883956746
147       0.000590683358
148      -0.000093907941
149      -0.000526555592
150      -0.000006301102
151       0.000009059076
152      -0.000012701796
153       0.000012724055
154       0.000001152833
155       0.000002922797
156       0.000004378707
157       0.000032070292
158      -0.000006587046
159       0.000005036309
160      -0.000710463032
161      -0.000058481745
162       0.000378958854
163      -0.000388131891
164       0.000000115486
165       0.000004150266
166      -0.000004345552
167       0.000001234673
168       0.000009404970
169      -0.000004616539
170      -0.000039786426
171       0.000001838616
172      -0.000010503781
173      -0.000014069363
174       0.000277784709
175      -0.000036453932
176       0.000573300665
177      -0.000148351804
178       0.000000573123
179      -0.000002292900
180      -0.000007689489
181      -0.000005240428
182      -0.000008356287
183       0.000323207535
184       0.000184539052
185       0.000082825317
186      -0.000102056583