
                                 *****************
                                 * O   R   C   A *
                                 *****************

                                            #,                                       
                                            ###                                      
                                            ####                                     
                                            #####                                    
                                            ######                                   
                                           ########,                                 
                                     ,,################,,,,,                         
                               ,,#################################,,                 
                          ,,##########################################,,             
                       ,#########################################, ''#####,          
                    ,#############################################,,   '####,        
                  ,##################################################,,,,####,       
                ,###########''''           ''''###############################       
              ,#####''   ,,,,##########,,,,          '''####'''          '####       
            ,##' ,,,,###########################,,,                        '##       
           ' ,,###''''                  '''############,,,                           
         ,,##''                                '''############,,,,        ,,,,,,###''
      ,#''                                            '''#######################'''  
     '                                                          ''''####''''         
             ,#######,   #######,   ,#######,      ##                                
            ,#'     '#,  ##    ##  ,#'     '#,    #''#        ,####,    ,#,          
            ##       ##  ##   ,#'  ##            #'  '#       #'       ,# #          
            ##       ##  #######   ##           ,######,      #####,      #          
            '#,     ,#'  ##    ##  '#,     ,#' ,#      #,     #,   #      #          
             '#######'   ##     ##  '#######'  #'      '#     '####' #    #          



                #########################################################
                #                        -***-                          #
                #          Department of theory and spectroscopy        #
                #                                                       #
                #                      Frank Neese                      #
                #                                                       #
                #     Directorship, Architecture, Infrastructure        #
                #                    SHARK, DRIVERS                     #
                #        Core code/Algorithms in most modules           #
                #                                                       #
                #        Max Planck Institute fuer Kohlenforschung      #
                #                Kaiser Wilhelm Platz 1                 #
                #                 D-45470 Muelheim/Ruhr                 #
                #                      Germany                          #
                #                                                       #
                #                  All rights reserved                  #
                #                        -***-                          #
                #########################################################


                         Program Version 6.1.1  -  RELEASE   -
                                (GIT: $487d211c$)
                          ($2025-11-21 10:33:24 +0100$)
                                                                         
                                  - NO-DMRG VERSION -                    
                                                                         


 With contributions from (in alphabetic order):
[Max-Planck-Institut fuer Kohlenforschung]                               
  Daniel Aravena         : Magnetic Suceptibility                        
  Michael Atanasov       : Ab Initio Ligand Field Theory (pilot matlab implementation)
  Alexander A. Auer      : GIAO ZORA, VPT2 properties, NMR spectrum      
  Ute Becker             : All parallelization in ORCA, NUMFREQ, NUMCALC 
  Giovanni Bistoni       : ED, misc. LED, open-shell LED, HFLD           
  Dmytro Bykov           : pre 5.0 version of the SCF Hessian            
  Marcos Casanova-Páez   : Triplet and SCS-CIS(D). UHF-(DLPNO)-IP/EA/STEOM-CCSD. UHF-CVS-IP/STEOM-CCSD   
  Vijay G. Chilkuri      : MRCI spin determinant printing, contributions to CSF-ICE 
  Pauline Colinet        : FMM embedding                                 
  Dipayan Datta          : RHF DLPNO-CCSD density                        
  Achintya Kumar Dutta   : EOM-CC, STEOM-CC                              
  Nicolas Foglia         : Exact transition moments, OPA infrastructure, MCD improvements    
  Dmitry Ganyushin       : Spin-Orbit,Spin-Spin,Magnetic field MRCI      
  Miquel Garcia-Rates    : C-PCM and meta-GGA Hessian, CCSD/C-PCM, Gaussian charge scheme 
  Tiago L. C. Gouveia    : GS-ROHF, GS-ROCIS                             
  Yang Guo               : DLPNO-NEVPT2, F12-NEVPT2, CIM, IAO-localization        
  Andreas Hansen         : Spin unrestricted coupled pair/coupled cluster methods 
  Ingolf Harden          : AUTO-CI MPn and infrastructure                
  Benjamin Helmich-Paris : MC-RPA, TRAH-(SCF,CASSCF), AVAS, COSX integrals, SCF dyn. polar., MC-PDFT, srDFT 
  Lee Huntington         : MR-EOM, pCC                                   
  Robert Izsak           : Overlap fitted RIJCOSX, COSX-SCS-MP3, EOM     
  Riya Kayal             : Wick's Theorem for AUTO-CI, AUTO-CI UHF-CCSDT 
  Emily Kempfer          : AUTO-CI RHF CISDT and CCSDT, approximate NEVPT4
  Christian Kollmar      : KDIIS, OOCD, Brueckner-CCSD(T), CCSD density, CASPT2, CASPT2-K, improved NEVPT2 
  Axel Koslowski         : Symmetry handling                             
  Simone Kossmann        : meta-GGA functionals, TD-DFT gradient, OOMP2, (MP2 Hessian; deprecated post 5.0) 
  Lucas Lang             : DCDCAS, Hyperfine gauge corrections, ICE-SOC+SSC
  Marvin Lechner         : AUTO-CI (C++ implementation), FIC-MRCC        
  Spencer Leger          : CASSCF response                               
  Dagmar Lenk            : GEPOL surface, SMD, ORCA-2-JSON               
  Dimitrios Liakos       : Extrapolation schemes; Compound Job, Property file
  Dimitrios Manganas     : Further ROCIS development; embedding schemes. LFT, Crystal Embedding 
  Dimitrios Pantazis     : SARC Basis sets                               
  Anastasios Papadopoulos: AUTO-CI, single reference methods and gradients 
  Taras Petrenko         : pre 6.0 DFT Hessian and TD-DFT gradient,  ECA, NRVS 
  Petra Pikulova         : Analytic Raman intensities                    
  Peter Pinski           : DLPNO-MP2, DLPNO-MP2 Gradient                 
  Shashank Vittal Rao    : ES-AILFT, MagRelax                            
  Christoph Reimann      : Effective Core Potentials                     
  Marius Retegan         : Local ZFS, SOC                                
  Christoph Riplinger    : Optimizer, TS searches, QM/MM, DLPNO-CCSD(T), (RO)-DLPNO pert. Triples 
  Michael Roemelt        : Original ROCIS implementation, recursive CI coupling coefficients
  Masaaki Saitow         : Open-shell DLPNO-CCSD energy and density      
  Barbara Sandhoefer     : DKH picture change effects                    
  Yorick L. A. Schmerwitz: GMF and freeze-and-release deltaSCF, NEB S-IDPP initial path                    
  Kantharuban Sivalingam : CASSCF convergence/infrastructure, NEVPT2, NEVPT3, NEVPT4(SD), FIC-MRCI and CEPA variants
  Bernardo de Souza      : ESD, SOC TD-DFT                               
  Georgi L. Stoychev     : AutoAux, RI-MP2 NMR, DLPNO-MP2 response, X2C  
  Van Anh Tran           : RI-MP2 g-tensors                              
  Willem Van den Heuvel  : Paramagnetic NMR                              
  Zikuan Wang            : NOTCH, Electric field optimization            
  Frank Wennmohs         : Technical directorship and infrastructure     
  Hang Xu                : AUTO-CI-Response properties                   
                                                                         
[FACCTs GmbH]                                                            
  Markus Bursch, Nicolas Foglia, Miquel Garcia-Rates, Ingolf Harden, Hagen Neugebauer, Anastasios Papadopoulos, 
  Christoph Riplinger, Bernardo de Souza, Georgi L. Stoychev                                                    
                                                                 
  APM, various basis sets, CI-OPT, improved COSX, DLPNO-Multilevel,           
  DOCKER, DRACO, updates on ESD, Fragmentator, GOAT, IRC, LR-CPCM, L-BFGS, MBIS, meta-GGA TD-DFT gradient, ML-optimized integration grids, 
  MM, NACMEs, nearIR, NEB, NEB-TS, NL-DFT gradient (VV10), 2- and 3-layer-ONIOM, interface openCOSMO-RS, QMMM,   
  Crystal-QMMM, RESP, rigid body optimization, SF, symmetry and pop. for TD-DFT, various functionals, SOLVATOR                                   
                                                                         
[Other institutions]                                                     
  V. Asgeirsson          : NEB                                           
  Christoph Bannwarth    : sTDA-DFT, sTD-DFT, PBEh-3c, B97-3c, D3        
  Giovanni Bistoni       : ETS/NOCV, ADLD/ADEX, COVALED                  
  Martin Brehm           : Molecular dynamics                            
  Ronald Cardenas        : ETS/NOCV                                      
  Martina Colucci        : COVALED                                       
  Sebastian Ehlert       : rSCAN, r2SCAN, r2SCAN-3c, D4, dhf basis sets  
  Marvin Friede          : D4 for Fr, Ra, Ac-Lr                          
  Lars Goerigk           : TD-DFT with DH, B97 family of functionals     
  Stefan Grimme          : VdW corrections, initial TS optimization, DFT functionals, gCP, sTDA/sTD-DF 
  Waldemar Hujo          : DFT-NL                                        
  H. Jonsson             : NEB                                           
  Holger Kruse           : gCP                                           
  Marcel Mueller         : wB97X-3c, vDZP basis set                      
  Hagen Neugebauer       : wr2SCAN, Native XTB                           
  Gianluca Regni         : ADLD/ADEX                                     
  Tobias Risthaus        : pre 6.0 range-separated hybrid DFT and stability analysis
  Lukas Wittmann         : regularized MP2, r2SCAN double-hybrids, wr2SCAN        
                                                                         
We gratefully acknowledge several colleagues who have allowed us to      
interface, adapt or use parts of their codes:                            
  Ed Valeev, F. Pavosevic, A. Kumar             : LibInt (2-el integral package), F12 methods 
  Garnet Chan, S. Sharma, J. Yang, R. Olivares  : DMRG                   
  Ulf Ekstrom                                   : XCFun DFT Library      
  Mihaly Kallay                                 : mrcc  (arbitrary order and MRCC methods)
  Frank Weinhold                                : gennbo (NPA and NBO analysis)           
  Simon Mueller                                 : openCOSMO-RS                            
  Christopher J. Cramer and Donald G. Truhlar   : smd solvation model                     
  S Lehtola, MJT Oliveira, MAL Marques          : LibXC Library                           
  Liviu Ungur et al                             : ANISO software                          


 Your calculation uses the libint2 library for the computation of 2-el integrals
 For citations please refer to: http://libint.valeyev.net

 Your ORCA version has been built with support for libXC version: 7.0.0
 For citations please refer to: https://libxc.gitlab.io

 This ORCA versions uses:
   CBLAS   interface :  Fast vector & matrix operations
   LAPACKE interface :  Fast linear algebra routines
   SCALAPACK package :  Parallel linear algebra routines
   Shared memory     :  Shared parallel matrices
   BLAS/LAPACK       :  OpenBLAS 0.3.29  USE64BITINT DYNAMIC_ARCH NO_AFFINITY SkylakeX SINGLE_THREADED
        Core in use  :  SkylakeX
   Copyright (c) 2011-2014, The OpenBLAS Project


  ***********************************
  * Starting time: Sat Mar 28 19:41:15 2026
  * Host name:     ab79031ffa68
  * Process ID:    55
  * Working dir.:  /kaggle/working
  ***********************************

NOTE: MaxCore=3000 MB was set to SCF,MP2,MDCI,CIPSI,MRCI,RASCI and CIS
      => If you want to overwrite this, your respective input block should be placed after the MaxCore statement
Your calculation utilizes the atom-pairwise dispersion correction
with the Becke-Johnson damping scheme (D3BJ)


Your calculation utilizes the SMD solvation module
Please cite in your paper:
Marenich, A. V.; Cramer, C. J.; Truhlar, D. G. J. Phys. Chem. B 2009, 113, 6378 

Warning: RI is on but no J-basis has been assigned. Assigning Def2/J (nothing to worry about!)
================================================================================

----- Orbital basis set information -----
Your calculation utilizes the basis: 6-31G(d,p)
   H-He, Li-Ne : W. J. Hehre, R. Ditchfield and J.A. Pople, J. Chem. Phys. 56, 2257 (1972).
                 Note: He and Ne are unpublished basis sets taken from the Gaussian program.
                 Note: Li and B from J. D. Dill and J. A. Pople, J. Chem. Phys. 62, 2921 (1975).
   Na - Ar     : M. M. Francl, W. J. Pietro, W. J. Hehre, J. S. Binkley, M. S. Gordon, 
                 D. J. DeFrees and J. A. Pople, J. Chem. Phys. 77, 3654 (1982).
   K - Zn      : V. A. Rassolov, J. A. Pople, M. A. Ratner, and T. L. Windus, J. Chem. Phys. 109, 1223 (1998).

----- AuxJ basis set information -----
Your calculation utilizes the auxiliary basis: def2/J
   H-Rn: F. Weigend, Phys. Chem. Chem. Phys. 8, 1057 (2006).
   Fr-Lr: K. Eichkorn, F. Weigend, O. Treutler, R. Ahlrichs; Theor. Chem. Acc. 97, 119 (1997).

================================================================================
                                        WARNINGS
                       Please study these warnings very carefully!
================================================================================


WARNING: Geometry Optimization
  ===> : Switching off AutoStart
         For restart on a previous wavefunction, please use MOREAD

================================================================================
                                       INPUT FILE
================================================================================
NAME = /kaggle/working/Ser-1/Ser_InterFrag.inp
|  1> 
|  2> !RKS B3LYP 6-31G(d,p) TightSCF Opt D3BJ
|  3>  
|  4> %pal nprocs 2 end
|  5> %maxcore 3000
|  6> 
|  7> %cpcm
|  8>   smd true
|  9>   SMDsolvent "WATER"
| 10>   end
| 11> 
| 12> %scf
| 13>   MaxIter 1000
| 14>   SOSCF Start 0.00033
| 15>   end
| 16> end
| 17> 
| 18> %output
| 19>   PrintLevel Normal
| 20>   Print[ P_OrbEn ] 2        # print ALL orbital energies (not just up to LUMO+9) :contentReference[oaicite:10]{index=10}
| 21>   XYZFile true              # writes basename.xyz (handy for reuse) :contentReference[oaicite:11]{index=11}
| 22>   end
| 23> 
| 24> *xyz 0 1
| 25> O        1.916400000      1.030600000     -0.206400000
| 26> O       -0.914700000      1.473000000      0.692800000
| 27> O       -1.687600000      0.043900000     -0.895600000
| 28> N       -0.178300000     -1.961400000      0.314500000
| 29> C        0.249900000     -0.571900000      0.467400000
| 30> C        1.504300000     -0.322900000     -0.365300000
| 31> C       -0.890000000      0.308700000     -0.007500000
| 32> H        0.435100000     -0.370700000      1.528500000
| 33> H        2.329300000     -0.973500000     -0.055600000
| 34> H        1.319800000     -0.485800000     -1.432800000
| 35> H       -0.383100000     -2.161400000     -0.663800000
| 36> H       -1.042100000     -2.118200000      0.832100000
| 37> H        2.102200000      1.170600000      0.737800000
| 38> H       -1.643200000      2.060700000      0.399100000
| 39> *
| 40> 
| 41>                          ****END OF INPUT****
================================================================================

                       *****************************
                       * Geometry Optimization Run *
                       *****************************

Geometry optimization settings:
Update method            Update   .... BFGS
Choice of coordinates    CoordSys .... (2022) Redundant Internals
Initial Hessian          InHess   .... Almloef's Model
Max. no of cycles        MaxIter  .... 50

Convergence Tolerances:
Energy Change            TolE     ....  5.0000e-06 Eh
Max. Gradient            TolMAXG  ....  3.0000e-04 Eh/bohr
RMS Gradient             TolRMSG  ....  1.0000e-04 Eh/bohr
Max. Displacement        TolMAXD  ....  4.0000e-03 bohr
RMS Displacement         TolRMSD  ....  2.0000e-03 bohr
Strict Convergence                .... False

------------------------------------------------------------------------------
                        ORCA OPTIMIZATION COORDINATE SETUP
------------------------------------------------------------------------------

The optimization will be done in redundant internal coordinates (2022)
Making redundant internal coordinates   ...  (2022 redundants) done
Evaluating the initial hessian          ...  (Almloef) done
Evaluating the coordinates              ...  done
Calculating the B-matrix                .... done
Calculating the G-matrix                .... done
The number of degrees of freedom        ....   54

    -----------------------------------------------------------------
                    Redundant Internal Coordinates


    -----------------------------------------------------------------
         Definition                    Initial Value    Approx d2E/dq
    -----------------------------------------------------------------
      1. B(C   4,N   3)                  1.4620         0.429540   
      2. B(C   5,C   4)                  1.5261         0.378998   
      3. B(C   5,O   0)                  1.4237         0.494361   
      4. B(C   6,C   4)                  1.5167         0.392290   
      5. B(C   6,O   2)                  1.2227         1.034629   
      6. B(C   6,O   1)                  1.3589         0.627313   
      7. B(H   7,C   4)                  1.0958         0.352546   
      8. B(H   8,C   5)                  1.0954         0.353075   
      9. B(H   9,C   5)                  1.0955         0.352890   
     10. B(H  10,N   3)                  1.0193         0.418143   
     11. B(H  11,N   3)                  1.0191         0.418420   
     12. B(H  12,O   0)                  0.9724         0.496733   
     13. B(H  13,O   1)                  0.9810         0.481350   
     14. A(C   5,O   0,H  12)          107.4898         0.353323   
     15. A(C   6,O   1,H  13)          111.8699         0.365984   
     16. A(C   4,N   3,H  10)          110.2245         0.335257   
     17. A(H  10,N   3,H  11)          106.6760         0.299994   
     18. A(C   4,N   3,H  11)          109.9594         0.335294   
     19. A(N   3,C   4,C   5)          109.8009         0.370746   
     20. A(C   6,C   4,H   7)          108.8823         0.325798   
     21. A(C   5,C   4,H   7)          111.0694         0.323958   
     22. A(N   3,C   4,H   7)          108.9828         0.328721   
     23. A(C   5,C   4,C   6)          110.6212         0.367310   
     24. A(N   3,C   4,C   6)          107.3941         0.372953   
     25. A(C   4,C   5,H   9)          111.6541         0.324009   
     26. A(O   0,C   5,H   9)          107.3894         0.336524   
     27. A(H   8,C   5,H   9)          108.3026         0.289024   
     28. A(C   4,C   5,H   8)          111.5865         0.324037   
     29. A(O   0,C   5,H   8)          108.3665         0.336554   
     30. A(O   0,C   5,C   4)          109.3985         0.379853   
     31. A(O   2,C   6,C   4)          126.2958         0.435463   
     32. A(O   1,C   6,C   4)          110.4725         0.398367   
     33. A(O   1,C   6,O   2)          123.2307         0.471132   
     34. D(C   5,C   4,N   3,H  10)    -59.8351         0.015730   
     35. D(C   6,C   4,N   3,H  11)    -56.8331         0.015730   
     36. D(C   5,C   4,N   3,H  11)   -177.1676         0.015730   
     37. D(H   7,C   4,N   3,H  10)    178.3002         0.015730   
     38. D(C   6,C   4,N   3,H  10)     60.4993         0.015730   
     39. D(H   8,C   5,C   4,H   7)     60.7262         0.011451   
     40. D(H   8,C   5,C   4,N   3)    -59.8845         0.011451   
     41. D(C   4,C   5,O   0,H  12)     60.0540         0.019308   
     42. D(O   0,C   5,C   4,H   7)    -59.1796         0.011451   
     43. D(O   0,C   5,C   4,N   3)   -179.7903         0.011451   
     44. D(H   9,C   5,O   0,H  12)   -178.5987         0.019308   
     45. D(H   8,C   5,C   4,C   6)   -178.2413         0.011451   
     46. D(O   0,C   5,C   4,C   6)     61.8529         0.011451   
     47. D(H   8,C   5,O   0,H  12)    -61.8091         0.019308   
     48. D(O   2,C   6,O   1,H  13)      0.1071         0.028922   
     49. D(O   2,C   6,C   4,C   5)     87.4719         0.011442   
     50. D(O   2,C   6,C   4,N   3)    -32.3410         0.011442   
     51. D(O   1,C   6,C   4,H   7)     30.1537         0.011442   
     52. D(O   1,C   6,C   4,C   5)    -92.1672         0.011442   
     53. D(O   1,C   6,C   4,N   3)    148.0199         0.011442   
     54. D(C   4,C   6,O   1,H  13)    179.7593         0.028922   
    -----------------------------------------------------------------

Number of atoms                         .... 14
Number of degrees of freedom            .... 54


         *************************************************************
         *                GEOMETRY OPTIMIZATION CYCLE   1            *
         *************************************************************
---------------------------------
CARTESIAN COORDINATES (ANGSTROEM)
---------------------------------
  O      1.916400    1.030600   -0.206400
  O     -0.914700    1.473000    0.692800
  O     -1.687600    0.043900   -0.895600
  N     -0.178300   -1.961400    0.314500
  C      0.249900   -0.571900    0.467400
  C      1.504300   -0.322900   -0.365300
  C     -0.890000    0.308700   -0.007500
  H      0.435100   -0.370700    1.528500
  H      2.329300   -0.973500   -0.055600
  H      1.319800   -0.485800   -1.432800
  H     -0.383100   -2.161400   -0.663800
  H     -1.042100   -2.118200    0.832100
  H      2.102200    1.170600    0.737800
  H     -1.643200    2.060700    0.399100

----------------------------
CARTESIAN COORDINATES (A.U.)
----------------------------
  NO LB      ZA    FRAG     MASS         X           Y           Z
   0 O     8.0000    0    15.999    3.621471    1.947552   -0.390039
   1 O     8.0000    0    15.999   -1.728532    2.783567    1.309202
   2 O     8.0000    0    15.999   -3.189102    0.082959   -1.692439
   3 N     7.0000    0    14.007   -0.336938   -3.706509    0.594319
   4 C     6.0000    0    12.011    0.472243   -1.080734    0.883258
   5 C     6.0000    0    12.011    2.842715   -0.610193   -0.690317
   6 C     6.0000    0    12.011   -1.681856    0.583358   -0.014173
   7 H     1.0000    0     1.008    0.822220   -0.700521    2.888446
   8 H     1.0000    0     1.008    4.401739   -1.839648   -0.105069
   9 H     1.0000    0     1.008    2.494061   -0.918029   -2.707600
  10 H     1.0000    0     1.008   -0.723954   -4.084454   -1.254400
  11 H     1.0000    0     1.008   -1.969284   -4.002818    1.572441
  12 H     1.0000    0     1.008    3.972582    2.212113    1.394240
  13 H     1.0000    0     1.008   -3.105198    3.894159    0.754190

--------------------------------
INTERNAL COORDINATES (ANGSTROEM)
--------------------------------
 O      0   0   0     0.000000000000     0.00000000     0.00000000
 O      1   0   0     3.003232526795     0.00000000     0.00000000
 O      2   1   0     2.272161037427    91.07173277     0.00000000
 N      3   2   1     2.786315953010    87.98243824    60.89926546
 C      4   3   2     1.461999965800    61.31888249   333.90762576
 C      1   2   3     1.423740801551    84.29527064   320.94422813
 C      3   2   1     1.222704547305    30.01761231    45.69494680
 H      5   4   3     1.095770820017   108.98284865   130.25541259
 H      6   1   2     1.095362702487   108.36649693   217.99983897
 H      6   1   2     1.095505778168   107.38939686   101.21028054
 H      4   3   2     1.019320327473    67.39061032   203.01263638
 H      4   3   2     1.019140049257    82.65654724    91.47641894
 H      1   2   3     0.972437802638    82.42586463   212.40383494
 H      2   1   3     0.981001136595   134.31920005   275.77938245

---------------------------
INTERNAL COORDINATES (A.U.)
---------------------------
 O      0   0   0     0.000000000000     0.00000000     0.00000000
 O      1   0   0     5.675286992127     0.00000000     0.00000000
 O      2   1   0     4.293762092903    91.07173277     0.00000000
 N      3   2   1     5.265374073765    87.98243824    60.89926546
 C      4   3   2     2.762779543165    61.31888249   333.90762576
 C      1   2   3     2.690480200620    84.29527064   320.94422813
 C      3   2   1     2.310576737106    30.01761231    45.69494680
 H      5   4   3     2.070706755374   108.98284865   130.25541259
 H      6   1   2     2.069935525013   108.36649693   217.99983897
 H      6   1   2     2.070205898866   107.38939686   101.21028054
 H      4   3   2     1.926236261663    67.39061032   203.01263638
 H      4   3   2     1.925895585207    82.65654724    91.47641894
 H      1   2   3     1.837641129259    82.42586463   212.40383494
 H      2   1   3     1.853823485229   134.31920005   275.77938245

---------------------
BASIS SET INFORMATION
---------------------
There are 4 groups of distinct atoms

 Group   1 Type O   : 10s4p1d contracted to 3s2p1d pattern {631/31/1}
 Group   2 Type N   : 10s4p1d contracted to 3s2p1d pattern {631/31/1}
 Group   3 Type C   : 10s4p1d contracted to 3s2p1d pattern {631/31/1}
 Group   4 Type H   : 4s1p contracted to 2s1p pattern {31/1}

Atom   0O    basis set group =>   1
Atom   1O    basis set group =>   1
Atom   2O    basis set group =>   1
Atom   3N    basis set group =>   2
Atom   4C    basis set group =>   3
Atom   5C    basis set group =>   3
Atom   6C    basis set group =>   3
Atom   7H    basis set group =>   4
Atom   8H    basis set group =>   4
Atom   9H    basis set group =>   4
Atom  10H    basis set group =>   4
Atom  11H    basis set group =>   4
Atom  12H    basis set group =>   4
Atom  13H    basis set group =>   4
---------------------------------
AUXILIARY/J BASIS SET INFORMATION
---------------------------------
There are 4 groups of distinct atoms

 Group   1 Type O   : 12s5p4d2f1g contracted to 6s4p3d1f1g pattern {711111/2111/211/2/1}
 Group   2 Type N   : 12s5p4d2f1g contracted to 6s4p3d1f1g pattern {711111/2111/211/2/1}
 Group   3 Type C   : 12s5p4d2f1g contracted to 6s4p3d1f1g pattern {711111/2111/211/2/1}
 Group   4 Type H   : 5s2p1d contracted to 3s1p1d pattern {311/2/1}

Atom   0O    basis set group =>   1
Atom   1O    basis set group =>   1
Atom   2O    basis set group =>   1
Atom   3N    basis set group =>   2
Atom   4C    basis set group =>   3
Atom   5C    basis set group =>   3
Atom   6C    basis set group =>   3
Atom   7H    basis set group =>   4
Atom   8H    basis set group =>   4
Atom   9H    basis set group =>   4
Atom  10H    basis set group =>   4
Atom  11H    basis set group =>   4
Atom  12H    basis set group =>   4
Atom  13H    basis set group =>   4


           ************************************************************
           *        Program running with 2 parallel MPI-processes     *
           *              working on a common directory               *
           ************************************************************
------------------------------------------------------------------------------
                             ORCA STARTUP CALCULATIONS
                           -- RI-GTO INTEGRALS CHOSEN --
------------------------------------------------------------------------------
------------------------------------------------------------------------------
                   ___                                                        
                  /   \      - P O W E R E D   B Y -                         
                 /     \                                                     
                 |  |  |   _    _      __       _____    __    __             
                 |  |  |  | |  | |    /  \     |  _  \  |  |  /  |          
                  \  \/   | |  | |   /    \    | | | |  |  | /  /          
                 / \  \   | |__| |  /  /\  \   | |_| |  |  |/  /          
                |  |  |   |  __  | /  /__\  \  |    /   |      \           
                |  |  |   | |  | | |   __   |  |    \   |  |\   \          
                \     /   | |  | | |  |  |  |  | |\  \  |  | \   \       
                 \___/    |_|  |_| |__|  |__|  |_| \__\ |__|  \__/        
                                                                              
                      - O R C A' S   B I G   F R I E N D -                    
                                      &                                       
                       - I N T E G R A L  F E E D E R -                       
                                                                              
 v1 FN, 2020, v2 2021, v3 2022-2024                                           
------------------------------------------------------------------------------


----------------------
SHARK INTEGRAL PACKAGE
----------------------

Number of atoms                             ...     14
Number of basis functions                   ...    133
Number of shells                            ...     63
Maximum angular momentum                    ...      2
Integral batch strategy                     ... SHARK/LIBINT Hybrid
RI-J (if used) integral strategy            ... SPLIT-RIJ (Revised 2003 algorithm where possible)
Printlevel                                  ...      1
Contraction scheme used                     ... SEGMENTED contraction
Prescreening option                         ... SCHWARTZ
   Thresh                                   ... 2.500e-11
   Tcut                                     ... 2.500e-12
   Tpresel                                  ... 2.500e-12 
Coulomb Range Separation                    ... NOT USED
Exchange Range Separation                   ... NOT USED
Multipole approximations                    ... NOT USED
Finite Nucleus Model                        ... NOT USED
CABS basis                                  ... NOT available
Auxiliary Coulomb fitting basis             ... AVAILABLE
   # of basis functions in Aux-J            ...    420
   # of shells in Aux-J                     ...    140
   Maximum angular momentum in Aux-J        ...      4
Auxiliary J/K fitting basis                 ... NOT available
Auxiliary Correlation fitting basis         ... NOT available
Auxiliary 'external' fitting basis          ... NOT available

Checking pre-screening integrals            ... done (  0.0 sec) Dimension = 63
   => SHARK Basis and OBASIS are compatible. Storing Pre-screening
Shell pair information
Shell pair cut-off parameter TPreSel        ...   2.5e-12
Total number of shell pairs                 ...      2016
Shell pairs after pre-screening             ...      1918
Total number of primitive shell pairs       ...     10038
Primitive shell pairs kept                  ...      6624
          la=0 lb=0:    591 shell pairs
          la=1 lb=0:    693 shell pairs
          la=1 lb=1:    221 shell pairs
          la=2 lb=0:    239 shell pairs
          la=2 lb=1:    146 shell pairs
          la=2 lb=2:     28 shell pairs

Checking whether 4 symmetric matrices of dimension 133 fit in memory
:Max Core in MB      =   3000.00
 MB in use           =      6.00
 MB left             =   2994.00
 MB needed           =      0.27
 Data fit in memory  = YES
Calculating RI/J V-Matrix + Cholesky decomp.... done (  0.0 sec)
Calculating Nuclear repulsion               ... done (  0.0 sec) ENN=    325.374147704493 Eh

Diagonalization of the overlap matrix:
Smallest eigenvalue                        ... 3.481e-03
Time for diagonalization                   ...    0.002 sec
Threshold for overlap eigenvalues          ... 1.000e-07
Number of eigenvalues below threshold      ... 0
Time for construction of square roots      ...    0.001 sec
Total time needed                          ...    0.004 sec

-------------------
DFT GRID GENERATION
-------------------

General Integration Accuracy     IntAcc      ... 4.388
Radial Grid Type                 RadialGrid  ... OptM3 with GC (2021)
Angular Grid (max. ang.)         AngularGrid ... 4 (Lebedev-302)
Angular grid pruning method      GridPruning ... 4 (adaptive)
Weight generation scheme         WeightScheme... mBecke (2022)
Basis function cutoff            BFCut       ... 1.0000e-11
Integration weight cutoff        WCut        ... 1.0000e-14
Partially contracted basis set               ... off
Rotationally invariant grid construction     ... off
Angular grids for H and He will be reduced by one unit

Total number of grid points                  ...    64971
Total number of batches                      ...     1025
Average number of points per batch           ...       63
Average number of grid points per atom       ...     4641

--------------------
COSX GRID GENERATION
--------------------

GRIDX 1
-------
General Integration Accuracy     IntAcc      ... 3.816
Radial Grid Type                 RadialGrid  ... OptM3 with GC (2021)
Angular Grid (max. ang.)         AngularGrid ... 1 (Lebedev-50)
Angular grid pruning method      GridPruning ... 4 (adaptive)
Weight generation scheme         WeightScheme... mBecke (2022)
Basis function cutoff            BFCut       ... 1.0000e-11
Integration weight cutoff        WCut        ... 1.0000e-14
Partially contracted basis set               ... on
Rotationally invariant grid construction     ... off
Angular grids for H and He will be reduced by one unit

Total number of grid points                  ...     8314
Total number of batches                      ...       74
Average number of points per batch           ...      112
Average number of grid points per atom       ...      594
UseSFitting                                  ... on

GRIDX 2
-------
General Integration Accuracy     IntAcc      ... 4.020
Radial Grid Type                 RadialGrid  ... OptM3 with GC (2021)
Angular Grid (max. ang.)         AngularGrid ... 2 (Lebedev-110)
Angular grid pruning method      GridPruning ... 4 (adaptive)
Weight generation scheme         WeightScheme... mBecke (2022)
Basis function cutoff            BFCut       ... 1.0000e-11
Integration weight cutoff        WCut        ... 1.0000e-14
Partially contracted basis set               ... on
Rotationally invariant grid construction     ... off
Angular grids for H and He will be reduced by one unit

Total number of grid points                  ...    18093
Total number of batches                      ...      148
Average number of points per batch           ...      122
Average number of grid points per atom       ...     1292
UseSFitting                                  ... on

GRIDX 3
-------
General Integration Accuracy     IntAcc      ... 4.338
Radial Grid Type                 RadialGrid  ... OptM3 with GC (2021)
Angular Grid (max. ang.)         AngularGrid ... 3 (Lebedev-194)
Angular grid pruning method      GridPruning ... 4 (adaptive)
Weight generation scheme         WeightScheme... mBecke (2022)
Basis function cutoff            BFCut       ... 1.0000e-11
Integration weight cutoff        WCut        ... 1.0000e-14
Partially contracted basis set               ... on
Rotationally invariant grid construction     ... off
Angular grids for H and He will be reduced by one unit

Total number of grid points                  ...    39744
Total number of batches                      ...      317
Average number of points per batch           ...      125
Average number of grid points per atom       ...     2839
UseSFitting                                  ... on
Grids setup in   0.9 sec
Initializing property integral containers    ... done (  0.0 sec)

SHARK setup successfully completed in   1.1 seconds

Maximum memory used throughout the entire STARTUP-calculation: 22.1 MB


           ************************************************************
           *        Program running with 2 parallel MPI-processes     *
           *              working on a common directory               *
           ************************************************************
-------------------------------------------------------------------------------
                                 ORCA GUESS
                   Start orbitals & Density for SCF / CASSCF
-------------------------------------------------------------------------------

------------
SCF SETTINGS
------------
Hamiltonian:
 Density Functional     Method          .... DFT(GTOs)
 Exchange Functional    Exchange        .... B88
   X-Alpha parameter    XAlpha          ....  0.666667
   Becke's b parameter  XBeta           ....  0.004200
 Correlation Functional Correlation     .... LYP
 LDA part of GGA corr.  LDAOpt          .... VWN-5
 Gradients option       PostSCFGGA      .... off
 Hybrid DFT is turned on
   Fraction HF Exchange ScalHFX         ....  0.200000
   Scaling of DF-GGA-X  ScalDFX         ....  0.720000
   Scaling of DF-GGA-C  ScalDFC         ....  0.810000
   Scaling of DF-LDA-C  ScalLDAC        ....  1.000000
   Perturbative correction              ....  0.000000
   NL short-range parameter             ....  4.800000
 RI-approximation to the Coulomb term is turned on
   Number of AuxJ basis functions       .... 420
   RIJ-COSX (HFX calculated with COS-X)).... on


General Settings:
 Integral files         IntName         .... /kaggle/working/Ser-1/Ser_InterFrag
 Hartree-Fock type      HFTyp           .... RHF
 Total Charge           Charge          ....    0
 Multiplicity           Mult            ....    1
 Number of Electrons    NEL             ....   56
 Basis Dimension        Dim             ....  133
 Nuclear Repulsion      ENuc            ....    325.3741477045 Eh

Convergence Acceleration:
 AO-DIIS                CNVDIIS         .... on
   Start iteration      DIISMaxIt       ....    12
   Startup error        DIISStart       ....  0.200000
   # of expansion vecs  DIISMaxEq       ....     5
   Bias factor          DIISBfac        ....   1.050
   Max. coefficient     DIISMaxC        ....  10.000
 MO-DIIS                CNVKDIIS        .... off
 Trust-Rad. Augm. Hess. CNVTRAH         .... auto
   Auto Start mean grad. ratio tolernc. ....  1.125000
   Auto Start start iteration           ....    50
   Auto Start num. interpolation iter.  ....    10
   Max. Number of Micro iterations      ....    24
   Max. Number of Macro iterations      .... Maxiter - #DIIS iter
   Number of Davidson start vectors     ....     2
   Converg. threshold    (grad. norm)   ....   1.000e-05
   Grad. Scal. Fac. for Micro threshold ....   0.100
   Minimum threshold for Micro iter.    ....   1.000e-02
   NR start threshold (gradient norm)   ....   1.000e-04
   Initial trust radius                 ....   0.400
   Minimum AH scaling param. (alpha)    ....   1.000
   Maximum AH scaling param. (alpha)    .... 1000.000
   Quad. conv. algorithm                .... NR
   White noise on init. David. guess    .... on
   Maximum white noise                  ....   0.010
   Pseudo random numbers                .... off
   Inactive MOs                         .... canonical
   Orbital update algorithm             .... Taylor
   Preconditioner                       .... Diag
   Full preconditioner red. dimension   ....   250
 SOSCF                 CNVSOSCF           .... on
   Start iteration     SOSCFMaxIt         ....   150
   Startup grad/error  SOSCFStart         ....  0.000330
   Hessian update      SOSCFHessUp        .... L-BFGS
   Autom. constraints  SOSCFAutoConstrain .... off
 Level Shifting         CNVShift        .... on
   Level shift para.    LevelShift      ....    0.2500
   Turn off err/grad.   ShiftErr        ....    0.0010
 Zerner damping         CNVZerner       .... off
 Static damping         CNVDamp         .... on
   Fraction old density DampFac         ....    0.7000
   Max. Damping (<1)    DampMax         ....    0.9800
   Min. Damping (>=0)   DampMin         ....    0.0000
   Turn off err/grad.   DampErr         ....    0.1000

SCF Procedure:
 Maximum # iterations   MaxIter         ....  1000
 SCF integral mode      SCFMode         .... Direct
   Integral package                     .... SHARK and LIBINT hybrid scheme
 Reset frequency        DirectResetFreq ....    20
 Integral Threshold     Thresh          ....  2.500e-11 Eh
 Primitive CutOff       TCut            ....  2.500e-12 Eh

Convergence Tolerance:
 Convergence Check Mode ConvCheckMode   .... Total+1el-Energy
 Convergence forced     ConvForced      .... 0
 Energy Change          TolE            ....  1.000e-08 Eh
 1-El. energy change                    ....  1.000e-05 Eh
 Orbital Gradient       TolG            ....  1.000e-05
 Orbital Rotation angle TolX            ....  1.000e-05
 DIIS Error             TolErr          ....  5.000e-07

------------------------------
INITIAL GUESS: MODEL POTENTIAL
------------------------------
Loading Hartree-Fock densities                     ... done
Calculating cut-offs                               ... done
Initializing the effective Hamiltonian             ... done
Setting up the integral package (SHARK)            ... done
Starting the Coulomb interaction                   ... done (   0.1 sec)
Making the grid                                    ... done (   0.1 sec)
Mapping shells                                     ... done
Starting the XC term evaluation                    ... done (   0.1 sec)
  promolecular density results
     # of electrons  =     55.996779388
     EX              =    -48.667027237
     EC              =     -1.936994412
     EX+EC           =    -50.604021649
Transforming the Hamiltonian                       ... done (   0.0 sec)
Diagonalizing the Hamiltonian                      ... done (   0.0 sec)
Back transforming the eigenvectors                 ... done (   0.0 sec)
Now organizing SCF variables                       ... done
                      ------------------
                      INITIAL GUESS DONE (   0.3 sec)
                      ------------------
             **** ENERGY FILE WAS UPDATED (/kaggle/working/Ser-1/Ser_InterFrag.en.tmp) ****
Finished Guess after   0.6 sec
Maximum memory used throughout the entire GUESS-calculation: 9.1 MB


           ************************************************************
           *        Program running with 2 parallel MPI-processes     *
           *              working on a common directory               *
           ************************************************************

-------------------------------------------------------------------------------------------
                                      ORCA LEAN-SCF
                              memory conserving SCF solver
-------------------------------------------------------------------------------------------

--------------------
CPCM SOLVATION MODEL
--------------------
CPCM parameters:
  Epsilon                                         ...      78.3550
  Refrac                                          ...       1.3328
  Rsolv                                           ...       1.3000
  Surface type                                    ... GAUSSIAN VDW
  Discretization scheme                           ... Constant charge density
    Threshold for H atoms                         ...       5.0000 (charges/Ang^2)
    Threshold for non-H atoms                     ...       5.0000 (charges/Ang^2)
  Epsilon function type                           ...         CPCM
Solvent:                                          ... WATER
SMD-CDS solvent descriptors:
  Soln                                            ...       1.3328
  Soln25                                          ...       1.3323
  Sola                                            ...       0.0000
  Solb                                            ...       0.0000
  Solg                                            ...       0.0000
  Solc                                            ...       0.0000
  Solh                                            ...       0.0000
Radii:
  Scheme                                          ... Element-dependent radii
  Radius for O  used is    2.8724 Bohr (=   1.5200 Ang.)
  Radius for N  used is    3.5716 Bohr (=   1.8900 Ang.)
  Radius for C  used is    3.4960 Bohr (=   1.8500 Ang.)
  Radius for H  used is    2.2677 Bohr (=   1.2000 Ang.)
Calculating surface                               ...        done! (  0.0s)
Cavity surface points                             ...         1042
Cavity Volume                                     ...     674.9340
Cavity Surface-area                               ...     459.0473
Calculating surface distance matrix               ...        done! (  0.0s)
Performing Cholesky decomposition & store         ...        done! (  0.0s)
Overall time for CPCM initialization              ...                 0.0s

----------------------------------------D-I-I-S--------------------------------------------
Iteration    Energy (Eh)           Delta-E    RMSDP     MaxDP     DIISErr   Damp  Time(sec)
-------------------------------------------------------------------------------------------
               ***  Starting incremental Fock matrix formation  ***
    1    -398.5010723964729777     0.00e+00  5.70e-03  8.26e-02  2.59e-01  0.700   2.2
    2    -398.6320863616418819    -1.31e-01  3.51e-03  5.02e-02  1.13e-01  0.700   1.3
                               ***Turning on AO-DIIS***
    3    -398.6782780552573513    -4.62e-02  1.24e-03  1.55e-02  3.55e-02  0.700   1.1
    4    -398.7071365260328548    -2.89e-02  1.82e-03  1.98e-02  1.39e-02  0.000   1.1
    5    -398.7721165160904775    -6.50e-02  4.48e-04  4.96e-03  6.63e-03  0.000   1.1
    6    -398.7724350854167596    -3.19e-04  1.31e-04  1.44e-03  1.98e-03  0.000   1.1
    7    -398.7724523612005214    -1.73e-05  5.50e-05  5.96e-04  6.48e-04  0.000   0.9
               *** Restarting incremental Fock matrix formation ***
                             ****Resetting DIIS****
                              *** Initializing SOSCF ***
---------------------------------------S-O-S-C-F--------------------------------------
Iteration    Energy (Eh)           Delta-E    RMSDP     MaxDP     MaxGrad    Time(sec)
--------------------------------------------------------------------------------------
    8    -398.7724128409287232     3.95e-05  4.12e-05  4.87e-04  3.06e-04     1.9
               *** Restarting incremental Fock matrix formation ***
    9    -398.7724125928496051     2.48e-07  5.06e-05  9.07e-04  2.45e-04     1.8
   10    -398.7724105833520980     2.01e-06  3.29e-05  6.48e-04  5.00e-04     1.3
   11    -398.7724134087530956    -2.83e-06  6.97e-06  1.08e-04  2.53e-05     1.3
   12    -398.7724133841974208     2.46e-08  4.20e-06  6.77e-05  3.75e-05     1.2
   13    -398.7724134259857465    -4.18e-08  5.56e-07  8.08e-06  2.53e-06     1.1
   14    -398.7724134292212739    -3.24e-09  2.84e-07  4.42e-06  2.74e-06     0.9
                 **** Energy Check signals convergence ****

               *****************************************************
               *                     SUCCESS                       *
               *           SCF CONVERGED AFTER  14 CYCLES          *
               *****************************************************

Recomputing exchange energy using gridx3       ... done (    2.761 sec)
Old exchange energy                            :     -9.881891064 Eh
New exchange energy                            :     -9.881926737 Eh
Exchange energy change after final integration :     -0.000035673 Eh
Total energy after final integration           :   -398.772449102 Eh

SMD CDS free energy correction energy :                 3.22928     Kcal/mol
Total Energy after SMD CDS correction =              -398.767302921 Eh
             **** ENERGY FILE WAS UPDATED (/kaggle/working/Ser-1/Ser_InterFrag.en.tmp) ****

----------------
TOTAL SCF ENERGY
----------------

Total Energy       :       -398.76730292078940 Eh          -10851.00997 eV

Components:
Nuclear Repulsion  :        325.37414770449300 Eh            8853.88068 eV
Electronic Energy  :       -724.11282817618780 Eh          -19704.11179 eV
One Electron Energy:      -1190.54754358139235 Eh          -32396.44566 eV
Two Electron Energy:        466.43471540520454 Eh           12692.33387 eV
CPCM Dielectric    :         -0.03373295762273 Eh              -0.91792 eV
SMD CDS (Gcds)     :          0.00514618145289 Eh               0.14003 eV

Virial components:
Potential Energy   :       -795.03783349521177 Eh          -21634.07930 eV
Kinetic Energy     :        396.27053057442231 Eh           10783.06934 eV
Virial Ratio       :          2.00630067631511

DFT components:
N(Alpha)           :       27.999996836563 electrons
N(Beta)            :       27.999996836563 electrons
N(Total)           :       55.999993673125 electrons
E(X)               :      -39.293350335275 Eh       
E(C)               :       -2.286039381012 Eh       
E(XC)              :      -41.579389716287 Eh       

CPCM Solvation Model Properties:
Surface-charge          :         -0.02592133150073
Corrected charge        :         -0.00000000000000
Outlying charge corr.   :          0.00005746179365 Eh               0.00156 eV
Free-energy (cav+disp)  :          0.00514618145289 Eh               0.14003 eV

---------------
SCF CONVERGENCE
---------------

  Last Energy change         ...    3.2355e-09  Tolerance :   1.0000e-08
  Last MAX-Density change    ...    4.4163e-06  Tolerance :   1.0000e-07
  Last RMS-Density change    ...    2.8424e-07  Tolerance :   5.0000e-09
  Last DIIS Error            ...    3.0594e-04  Tolerance :   5.0000e-07
  Last Orbital Gradient      ...    2.7405e-06  Tolerance :   1.0000e-05
  Last Orbital Rotation      ...    1.0575e-06  Tolerance :   1.0000e-05


----------------
ORBITAL ENERGIES
----------------

  NO   OCC          E(Eh)            E(eV) 
   0   2.0000     -19.184964      -522.0494 
   1   2.0000     -19.140556      -520.8410 
   2   2.0000     -19.137621      -520.7611 
   3   2.0000     -14.304469      -389.2444 
   4   2.0000     -10.314703      -280.6773 
   5   2.0000     -10.224471      -278.2220 
   6   2.0000     -10.214521      -277.9512 
   7   2.0000      -1.093231       -29.7483 
   8   2.0000      -1.013972       -27.5916 
   9   2.0000      -1.010336       -27.4927 
  10   2.0000      -0.882619       -24.0173 
  11   2.0000      -0.728719       -19.8295 
  12   2.0000      -0.659408       -17.9434 
  13   2.0000      -0.581574       -15.8254 
  14   2.0000      -0.516227       -14.0473 
  15   2.0000      -0.500055       -13.6072 
  16   2.0000      -0.483370       -13.1532 
  17   2.0000      -0.457011       -12.4359 
  18   2.0000      -0.447389       -12.1741 
  19   2.0000      -0.429754       -11.6942 
  20   2.0000      -0.404493       -11.0068 
  21   2.0000      -0.387198       -10.5362 
  22   2.0000      -0.376505       -10.2452 
  23   2.0000      -0.327137        -8.9018 
  24   2.0000      -0.320219        -8.7136 
  25   2.0000      -0.283478        -7.7138 
  26   2.0000      -0.269272        -7.3273 
  27   2.0000      -0.238893        -6.5006 
  28   0.0000       0.002947         0.0802 
  29   0.0000       0.097608         2.6561 
  30   0.0000       0.100824         2.7436 
  31   0.0000       0.113540         3.0896 
  32   0.0000       0.138560         3.7704 
  33   0.0000       0.175934         4.7874 
  34   0.0000       0.190120         5.1734 
  35   0.0000       0.192330         5.2336 
  36   0.0000       0.221821         6.0361 
  37   0.0000       0.233497         6.3538 
  38   0.0000       0.249757         6.7962 
  39   0.0000       0.284542         7.7428 
  40   0.0000       0.332827         9.0567 
  41   0.0000       0.367199         9.9920 
  42   0.0000       0.529757        14.4154 
  43   0.0000       0.539878        14.6908 
  44   0.0000       0.564088        15.3496 
  45   0.0000       0.595691        16.2096 
  46   0.0000       0.610172        16.6036 
  47   0.0000       0.638444        17.3729 
  48   0.0000       0.654621        17.8131 
  49   0.0000       0.704900        19.1813 
  50   0.0000       0.717406        19.5216 
  51   0.0000       0.734552        19.9882 
  52   0.0000       0.763630        20.7794 
  53   0.0000       0.775690        21.1076 
  54   0.0000       0.797986        21.7143 
  55   0.0000       0.805368        21.9152 
  56   0.0000       0.846911        23.0456 
  57   0.0000       0.853529        23.2257 
  58   0.0000       0.865090        23.5403 
  59   0.0000       0.895552        24.3692 
  60   0.0000       0.917035        24.9538 
  61   0.0000       0.930433        25.3184 
  62   0.0000       0.951258        25.8851 
  63   0.0000       0.963360        26.2143 
  64   0.0000       1.004403        27.3312 
  65   0.0000       1.019907        27.7531 
  66   0.0000       1.055345        28.7174 
  67   0.0000       1.079518        29.3752 
  68   0.0000       1.088620        29.6229 
  69   0.0000       1.136602        30.9285 
  70   0.0000       1.165519        31.7154 
  71   0.0000       1.254699        34.1421 
  72   0.0000       1.312435        35.7132 
  73   0.0000       1.366603        37.1872 
  74   0.0000       1.420579        38.6559 
  75   0.0000       1.431116        38.9427 
  76   0.0000       1.485376        40.4191 
  77   0.0000       1.512548        41.1585 
  78   0.0000       1.523298        41.4510 
  79   0.0000       1.604136        43.6508 
  80   0.0000       1.629599        44.3436 
  81   0.0000       1.635853        44.5138 
  82   0.0000       1.693714        46.0883 
  83   0.0000       1.748848        47.5886 
  84   0.0000       1.769849        48.1600 
  85   0.0000       1.784676        48.5635 
  86   0.0000       1.821536        49.5665 
  87   0.0000       1.857321        50.5403 
  88   0.0000       1.861069        50.6423 
  89   0.0000       1.887397        51.3587 
  90   0.0000       1.926512        52.4231 
  91   0.0000       1.975366        53.7524 
  92   0.0000       1.996457        54.3263 
  93   0.0000       2.024249        55.0826 
  94   0.0000       2.034919        55.3730 
  95   0.0000       2.088348        56.8268 
  96   0.0000       2.117823        57.6289 
  97   0.0000       2.144907        58.3659 
  98   0.0000       2.203125        59.9501 
  99   0.0000       2.243151        61.0392 
 100   0.0000       2.266307        61.6694 
 101   0.0000       2.284226        62.1570 
 102   0.0000       2.319192        63.1084 
 103   0.0000       2.349215        63.9254 
 104   0.0000       2.379864        64.7594 
 105   0.0000       2.401286        65.3423 
 106   0.0000       2.460407        66.9511 
 107   0.0000       2.501422        68.0672 
 108   0.0000       2.520861        68.5961 
 109   0.0000       2.544937        69.2512 
 110   0.0000       2.592035        70.5328 
 111   0.0000       2.611772        71.0699 
 112   0.0000       2.650243        72.1168 
 113   0.0000       2.659094        72.3576 
 114   0.0000       2.704220        73.5856 
 115   0.0000       2.731562        74.3296 
 116   0.0000       2.760372        75.1135 
 117   0.0000       2.786568        75.8264 
 118   0.0000       2.850128        77.5559 
 119   0.0000       2.860554        77.8396 
 120   0.0000       2.890332        78.6499 
 121   0.0000       2.922582        79.5275 
 122   0.0000       2.978102        81.0383 
 123   0.0000       3.003992        81.7428 
 124   0.0000       3.066269        83.4374 
 125   0.0000       3.184343        86.6504 
 126   0.0000       3.271818        89.0307 
 127   0.0000       3.323375        90.4336 
 128   0.0000       3.380012        91.9748 
 129   0.0000       3.432973        93.4160 
 130   0.0000       3.473538        94.5198 
 131   0.0000       3.547763        96.5395 
 132   0.0000       3.565752        97.0290 

                    ********************************
                    * MULLIKEN POPULATION ANALYSIS *
                    ********************************

-----------------------
MULLIKEN ATOMIC CHARGES
-----------------------
   0 O :   -0.606806
   1 O :   -0.503157
   2 O :   -0.508188
   3 N :   -0.624679
   4 C :   -0.039614
   5 C :    0.068082
   6 C :    0.557979
   7 H :    0.148852
   8 H :    0.120129
   9 H :    0.131642
  10 H :    0.264833
  11 H :    0.270236
  12 H :    0.352366
  13 H :    0.368324
Sum of atomic charges:    0.0000000

--------------------------------
MULLIKEN REDUCED ORBITAL CHARGES
--------------------------------
  0 O s       :     3.832564  s :     3.832564
      pz      :     1.455331  p :     4.753018
      px      :     1.864539
      py      :     1.433148
      dz2     :     0.008545  d :     0.021224
      dxz     :     0.001361
      dyz     :     0.002702
      dx2y2   :     0.004827
      dxy     :     0.003788

  1 O s       :     3.824224  s :     3.824224
      pz      :     1.695150  p :     4.657746
      px      :     1.613146
      py      :     1.349449
      dz2     :     0.003836  d :     0.021188
      dxz     :     0.003180
      dyz     :     0.006000
      dx2y2   :     0.003084
      dxy     :     0.005088

  2 O s       :     3.844433  s :     3.844433
      pz      :     1.421455  p :     4.638042
      px      :     1.493905
      py      :     1.722682
      dz2     :     0.007927  d :     0.025712
      dxz     :     0.006695
      dyz     :     0.003745
      dx2y2   :     0.003648
      dxy     :     0.003697

  3 N s       :     3.588308  s :     3.588308
      pz      :     1.243328  p :     4.008349
      px      :     1.448942
      py      :     1.316079
      dz2     :     0.007817  d :     0.028022
      dxz     :     0.005645
      dyz     :     0.002466
      dx2y2   :     0.009400
      dxy     :     0.002694

  4 C s       :     3.200608  s :     3.200608
      pz      :     1.041584  p :     2.782837
      px      :     0.922814
      py      :     0.818440
      dz2     :     0.012651  d :     0.056169
      dxz     :     0.007041
      dyz     :     0.008187
      dx2y2   :     0.012694
      dxy     :     0.015595

  5 C s       :     3.162677  s :     3.162677
      pz      :     1.036452  p :     2.707545
      px      :     0.946306
      py      :     0.724787
      dz2     :     0.013986  d :     0.061696
      dxz     :     0.006888
      dyz     :     0.007942
      dx2y2   :     0.014933
      dxy     :     0.017946

  6 C s       :     2.993142  s :     2.993142
      pz      :     0.738093  p :     2.329014
      px      :     0.842036
      py      :     0.748884
      dz2     :     0.023970  d :     0.119865
      dxz     :     0.018524
      dyz     :     0.030445
      dx2y2   :     0.025082
      dxy     :     0.021844

  7 H s       :     0.840084  s :     0.840084
      pz      :     0.007244  p :     0.011064
      px      :     0.002083
      py      :     0.001737

  8 H s       :     0.868907  s :     0.868907
      pz      :     0.002503  p :     0.010964
      px      :     0.004891
      py      :     0.003569

  9 H s       :     0.857477  s :     0.857477
      pz      :     0.007141  p :     0.010881
      px      :     0.002233
      py      :     0.001507

 10 H s       :     0.711576  s :     0.711576
      pz      :     0.012038  p :     0.023591
      px      :     0.006063
      py      :     0.005490

 11 H s       :     0.706232  s :     0.706232
      pz      :     0.007221  p :     0.023532
      px      :     0.010934
      py      :     0.005377

 12 H s       :     0.609924  s :     0.609924
      pz      :     0.020997  p :     0.037710
      px      :     0.009848
      py      :     0.006866

 13 H s       :     0.594755  s :     0.594755
      pz      :     0.008392  p :     0.036922
      px      :     0.016115
      py      :     0.012414


------------------------
MULLIKEN OVERLAP CHARGES
------------------------
B(  0-O ,  4-C ) :  -0.1044 B(  0-O ,  5-C ) :   0.5160 B(  0-O ,  8-H ) :  -0.0716 
B(  0-O ,  9-H ) :  -0.0633 B(  0-O , 12-H ) :   0.6065 B(  1-O ,  2-O ) :  -0.1602 
B(  1-O ,  4-C ) :  -0.1540 B(  1-O ,  6-C ) :   0.5610 B(  1-O , 13-H ) :   0.5533 
B(  2-O ,  4-C ) :  -0.1532 B(  2-O ,  6-C ) :   1.2246 B(  3-N ,  4-C ) :   0.6016 
B(  3-N ,  5-C ) :  -0.0779 B(  3-N ,  6-C ) :  -0.1123 B(  3-N ,  7-H ) :  -0.0688 
B(  3-N , 10-H ) :   0.6920 B(  3-N , 11-H ) :   0.6963 B(  4-C ,  5-C ) :   0.7026 
B(  4-C ,  6-C ) :   0.5680 B(  4-C ,  7-H ) :   0.7576 B(  4-C ,  8-H ) :  -0.0890 
B(  4-C ,  9-H ) :  -0.0715 B(  4-C , 10-H ) :  -0.0797 B(  4-C , 11-H ) :  -0.0739 
B(  5-C ,  6-C ) :  -0.0774 B(  5-C ,  7-H ) :  -0.0553 B(  5-C ,  8-H ) :   0.7689 
B(  5-C ,  9-H ) :   0.7655 B(  5-C , 12-H ) :  -0.0736 B(  6-C ,  7-H ) :  -0.0934 
B(  8-H ,  9-H ) :  -0.0803 B( 10-H , 11-H ) :  -0.0598 


                     *******************************
                     * LOEWDIN POPULATION ANALYSIS *
                     *******************************

----------------------
LOEWDIN ATOMIC CHARGES
----------------------
   0 O :   -0.302771
   1 O :   -0.168827
   2 O :   -0.296439
   3 N :   -0.275296
   4 C :   -0.055531
   5 C :    0.014095
   6 C :    0.158110
   7 H :    0.094841
   8 H :    0.069337
   9 H :    0.080147
  10 H :    0.136339
  11 H :    0.141156
  12 H :    0.190669
  13 H :    0.214170

-------------------------------
LOEWDIN REDUCED ORBITAL CHARGES
-------------------------------
  0 O s       :     3.498672  s :     3.498672
      pz      :     1.460551  p :     4.761655
      px      :     1.834021
      py      :     1.467083
      dz2     :     0.015897  d :     0.042444
      dxz     :     0.001934
      dyz     :     0.006652
      dx2y2   :     0.009740
      dxy     :     0.008221

  1 O s       :     3.478588  s :     3.478588
      pz      :     1.682443  p :     4.644150
      px      :     1.591952
      py      :     1.369755
      dz2     :     0.006580  d :     0.046088
      dxz     :     0.004374
      dyz     :     0.014089
      dx2y2   :     0.008982
      dxy     :     0.012063

  2 O s       :     3.559414  s :     3.559414
      pz      :     1.461143  p :     4.684828
      px      :     1.520188
      py      :     1.703497
      dz2     :     0.011832  d :     0.052198
      dxz     :     0.018404
      dyz     :     0.007816
      dx2y2   :     0.007614
      dxy     :     0.006532

  3 N s       :     3.192471  s :     3.192471
      pz      :     1.245599  p :     4.027674
      px      :     1.439804
      py      :     1.342270
      dz2     :     0.014950  d :     0.055151
      dxz     :     0.009517
      dyz     :     0.006759
      dx2y2   :     0.017340
      dxy     :     0.006584

  4 C s       :     2.885547  s :     2.885547
      pz      :     1.075429  p :     3.042524
      px      :     1.020677
      py      :     0.946418
      dz2     :     0.026898  d :     0.127460
      dxz     :     0.017017
      dyz     :     0.016537
      dx2y2   :     0.029230
      dxy     :     0.037779

  5 C s       :     2.895538  s :     2.895538
      pz      :     1.079368  p :     2.955336
      px      :     1.019794
      py      :     0.856174
      dz2     :     0.028552  d :     0.135032
      dxz     :     0.016062
      dyz     :     0.016688
      dx2y2   :     0.034766
      dxy     :     0.038964

  6 C s       :     2.864753  s :     2.864753
      pz      :     0.874385  p :     2.694710
      px      :     0.941190
      py      :     0.879135
      dz2     :     0.051425  d :     0.282428
      dxz     :     0.044539
      dyz     :     0.076651
      dx2y2   :     0.059067
      dxy     :     0.050746

  7 H s       :     0.865427  s :     0.865427
      pz      :     0.026743  p :     0.039732
      px      :     0.007301
      py      :     0.005688

  8 H s       :     0.891557  s :     0.891557
      pz      :     0.007915  p :     0.039105
      px      :     0.018109
      py      :     0.013081

  9 H s       :     0.881465  s :     0.881465
      pz      :     0.026973  p :     0.038388
      px      :     0.006631
      py      :     0.004784

 10 H s       :     0.784184  s :     0.784184
      pz      :     0.043499  p :     0.079477
      px      :     0.018341
      py      :     0.017638

 11 H s       :     0.779955  s :     0.779955
      pz      :     0.022182  p :     0.078889
      px      :     0.039588
      py      :     0.017119

 12 H s       :     0.692258  s :     0.692258
      pz      :     0.066060  p :     0.117074
      px      :     0.030401
      py      :     0.020612

 13 H s       :     0.672611  s :     0.672611
      pz      :     0.026334  p :     0.113219
      px      :     0.050003
      py      :     0.036882


---------------------------------
LOEWDIN BOND ORDERS (THRESH 0.050000)
---------------------------------
B(  0-O ,  4-C ) :   0.0706 B(  0-O ,  5-C ) :   1.1916 B(  0-O , 12-H ) :   1.0202 
B(  1-O ,  2-O ) :   0.1968 B(  1-O ,  4-C ) :   0.0677 B(  1-O ,  6-C ) :   1.4006 
B(  1-O , 13-H ) :   0.9737 B(  2-O ,  4-C ) :   0.0832 B(  2-O ,  6-C ) :   2.1739 
B(  3-N ,  4-C ) :   1.1488 B(  3-N ,  5-C ) :   0.0552 B(  3-N ,  6-C ) :   0.0850 
B(  3-N , 10-H ) :   0.9831 B(  3-N , 11-H ) :   0.9834 B(  4-C ,  5-C ) :   1.0161 
B(  4-C ,  6-C ) :   0.9790 B(  4-C ,  7-H ) :   0.8979 B(  5-C ,  6-C ) :   0.0539 
B(  5-C ,  8-H ) :   0.9308 B(  5-C ,  9-H ) :   0.9326 B(  6-C , 13-H ) :   0.0524 


------------------------------------------
LOEWDIN REDUCED ORBITAL POPULATIONS PER MO
-------------------------------------------
THRESHOLD FOR PRINTING IS 0.1%%
                      0         1         2         3         4         5   
                 -19.18496 -19.14056 -19.13762 -14.30447 -10.31470 -10.22447
                   2.00000   2.00000   2.00000   2.00000   2.00000   2.00000
                  --------  --------  --------  --------  --------  --------
 0 O  s               0.0       0.0      99.9       0.0       0.0       0.0
 0 O  py              0.0       0.0       0.0       0.0       0.0       0.1
 1 O  s              99.9       0.0       0.0       0.0       0.0       0.0
 1 O  py              0.0       0.0       0.0       0.0       0.1       0.0
 2 O  s               0.0      99.8       0.0       0.0       0.1       0.0
 2 O  pz              0.0       0.0       0.0       0.0       0.2       0.0
 2 O  px              0.0       0.0       0.0       0.0       0.2       0.0
 2 O  dxz             0.0       0.0       0.0       0.0       0.1       0.0
 3 N  s               0.0       0.0       0.0      99.7       0.0       0.0
 5 C  s               0.0       0.0       0.0       0.0       0.0      99.5
 6 C  s               0.0       0.0       0.0       0.0      99.0       0.0

                      6         7         8         9        10        11   
                 -10.21452  -1.09323  -1.01397  -1.01034  -0.88262  -0.72872
                   2.00000   2.00000   2.00000   2.00000   2.00000   2.00000
                  --------  --------  --------  --------  --------  --------
 0 O  s               0.0       0.1      58.1       0.7       1.0       3.4
 0 O  pz              0.0       0.0       0.7       0.0       0.0       0.6
 0 O  px              0.0       0.0       0.1       0.0       0.0       0.8
 0 O  py              0.0       0.0       1.4       0.0       0.1       2.4
 1 O  s               0.0      35.8       0.0      25.4       0.1       0.7
 1 O  pz              0.0       1.2       0.0       0.2       0.0       0.0
 1 O  px              0.0       0.3       0.0       0.2       0.1       1.2
 1 O  py              0.0       1.0       0.0       0.1       0.1       3.1
 2 O  s               0.0      19.5       1.0      35.3       1.3       0.7
 2 O  pz              0.0       1.7       0.0       1.2       0.0       0.1
 2 O  px              0.0       1.2       0.0       1.2       0.0       0.3
 2 O  py              0.0       0.3       0.0       0.0       0.1       0.0
 2 O  dxz             0.0       0.1       0.0       0.1       0.0       0.0
 3 N  s               0.0       0.1       0.1       0.2      39.4      11.3
 3 N  pz              0.0       0.0       0.0       0.0       0.1       0.1
 3 N  px              0.0       0.0       0.0       0.0       0.2       2.0
 3 N  py              0.1       0.1       0.0       0.1       2.1       2.5
 4 C  s              99.4       1.2       0.8       0.2      16.5      13.1
 4 C  pz              0.0       0.2       0.2       0.2       0.2       0.4
 4 C  px              0.0       0.9       0.9       0.1       0.7       1.3
 4 C  py              0.0       0.7       0.2       0.0       5.0       6.7
 4 C  dz2             0.0       0.0       0.0       0.0       0.1       0.0
 4 C  dx2y2           0.0       0.0       0.0       0.0       0.1       0.2
 4 C  dxy             0.0       0.0       0.0       0.0       0.1       0.2
 5 C  s               0.0       0.1       9.6       0.2       1.3      11.8
 5 C  pz              0.0       0.0       0.3       0.0       0.3       0.2
 5 C  px              0.1       0.1       0.5       0.0       1.8       2.5
 5 C  py              0.0       0.0       7.5       0.1       0.9       0.8
 5 C  dz2             0.0       0.0       0.2       0.0       0.0       0.0
 5 C  dx2y2           0.0       0.0       0.4       0.0       0.1       0.1
 5 C  dxy             0.0       0.0       0.2       0.0       0.0       0.0
 6 C  s               0.0      21.1       0.1       2.2       0.5       4.0
 6 C  pz              0.0       0.1       0.3      12.6       0.9       1.0
 6 C  px              0.1       1.9       0.6       3.9       2.6       5.5
 6 C  py              0.0       2.5       0.0       8.0       1.7       0.7
 6 C  dz2             0.0       0.0       0.0       0.2       0.0       0.0
 6 C  dxz             0.0       0.4       0.0       0.9       0.0       0.0
 6 C  dyz             0.0       0.6       0.0       0.1       0.0       0.0
 6 C  dx2y2           0.0       0.1       0.0       0.7       0.0       0.0
 7 H  s               0.1       0.2       0.1       0.0       2.3       3.2
 7 H  pz              0.0       0.0       0.0       0.0       0.1       0.2
 8 H  s               0.0       0.0       1.1       0.0       0.2       2.3
 8 H  px              0.0       0.0       0.0       0.0       0.0       0.1
 9 H  s               0.0       0.0       1.1       0.0       0.3       2.8
 9 H  pz              0.0       0.0       0.1       0.0       0.0       0.2
10 H  s               0.0       0.1       0.0       0.1       8.5       3.9
10 H  pz              0.0       0.0       0.0       0.0       0.9       0.5
11 H  s               0.0       0.0       0.0       0.0       8.5       4.5
11 H  pz              0.0       0.0       0.0       0.0       0.3       0.2
11 H  px              0.0       0.0       0.0       0.0       0.6       0.3
12 H  s               0.0       0.0      11.9       0.1       0.2       1.6
12 H  pz              0.0       0.0       2.0       0.0       0.0       0.3
13 H  s               0.0       6.7       0.0       4.4       0.1       1.4
13 H  px              0.0       0.6       0.0       0.5       0.0       0.1
13 H  py              0.0       0.5       0.0       0.4       0.0       0.0

                     12        13        14        15        16        17   
                  -0.65941  -0.58157  -0.51623  -0.50005  -0.48337  -0.45701
                   2.00000   2.00000   2.00000   2.00000   2.00000   2.00000
                  --------  --------  --------  --------  --------  --------
 0 O  s               1.6       0.0       0.7       0.2       0.0       0.2
 0 O  pz              2.5       4.7       6.0      13.0       0.0       2.9
 0 O  px              0.3       0.2       1.3       1.0       1.5       8.1
 0 O  py              5.7       3.0       0.1       7.1       0.0       0.5
 0 O  dz2             0.1       0.1       0.0       0.2       0.0       0.1
 0 O  dx2y2           0.1       0.0       0.0       0.0       0.0       0.0
 1 O  s               0.9       0.4       0.1       0.1       2.7       1.6
 1 O  pz              0.1       1.7       0.3       2.0       4.3      15.9
 1 O  px              3.5       3.3       0.5       0.1      13.6       0.2
 1 O  py             12.3      20.0       9.4       0.1       0.1       0.0
 1 O  dyz             0.1       0.2       0.1       0.0       0.0       0.1
 1 O  dx2y2           0.1       0.1       0.0       0.0       0.0       0.0
 2 O  s               1.3       0.9       2.2       1.0      12.3       0.1
 2 O  pz              0.7       0.6       0.7       0.2      25.0       0.6
 2 O  px              0.5       0.2       6.6       2.3       8.2       0.2
 2 O  py              0.0       0.7       2.0       0.6       3.5      10.4
 2 O  dz2             0.0       0.0       0.0       0.0       0.1       0.0
 2 O  dxz             0.0       0.0       0.1       0.0       0.3       0.0
 2 O  dyz             0.0       0.0       0.1       0.0       0.1       0.1
 2 O  dx2y2           0.0       0.0       0.1       0.0       0.0       0.0
 2 O  dxy             0.0       0.0       0.0       0.0       0.0       0.1
 3 N  s               0.2       1.1       0.4       0.0       0.0       0.5
 3 N  pz              0.3       1.3       3.0      16.6       3.9       0.1
 3 N  px              0.2       2.3       0.9       4.4       0.0       1.4
 3 N  py              0.3       5.4       0.2       0.0       1.6       0.2
 3 N  dx2y2           0.0       0.1       0.0       0.0       0.0       0.0
 4 C  s               0.9       8.7       0.0       0.1       0.0       0.7
 4 C  pz              1.7       2.5       9.2      12.0       0.4       0.1
 4 C  px              8.6       0.4       8.0       2.1       0.5       6.6
 4 C  py              2.3       0.4       1.9       0.3       2.7       0.0
 4 C  dxz             0.2       0.0       0.1       0.0       0.0       0.0
 4 C  dx2y2           0.0       0.0       0.0       0.0       0.0       0.1
 4 C  dxy             0.1       0.0       0.0       0.0       0.0       0.2
 5 C  s              16.9       2.2       0.5       0.0       0.1       0.6
 5 C  pz              0.9       5.2       6.0       0.5       0.0       1.5
 5 C  px              0.4       2.1       3.0       2.5       2.4       9.5
 5 C  py              1.6       0.3       4.9       7.6       0.7       7.3
 5 C  dxz             0.0       0.1       0.0       0.0       0.0       0.2
 5 C  dx2y2           0.0       0.1       0.0       0.2       0.0       0.1
 6 C  s               6.7       2.4       1.2       0.3       2.5       0.2
 6 C  pz              3.4       0.7       1.2       1.8       1.1       4.7
 6 C  px              2.5       0.1       4.6       0.4       5.8       0.3
 6 C  py              0.2       4.9       9.0       0.9       0.1      10.2
 6 C  dyz             0.0       0.2       0.1       0.0       0.1       0.1
 7 H  s               0.8       5.5       3.7       3.9       0.0       0.7
 7 H  pz              0.0       0.3       0.1       0.1       0.0       0.1
 8 H  s               6.1       0.8       5.1       0.3       1.3       8.3
 8 H  px              0.2       0.0       0.2       0.0       0.0       0.1
 8 H  py              0.1       0.0       0.1       0.0       0.0       0.1
 9 H  s               6.4       2.8       0.7       0.1       0.0       1.7
 9 H  pz              0.4       0.1       0.0       0.0       0.0       0.0
10 H  s               0.3       2.3       0.5       4.9       2.7       0.0
10 H  pz              0.0       0.2       0.0       0.1       0.1       0.0
10 H  px              0.0       0.0       0.0       0.1       0.0       0.0
11 H  s               0.0       1.3       0.3       5.7       0.1       0.1
11 H  px              0.0       0.0       0.0       0.2       0.0       0.0
12 H  s               2.4       2.2       1.6       5.7       0.0       1.9
12 H  pz              0.3       0.1       0.0       0.3       0.0       0.1
13 H  s               4.7       6.4       2.3       0.0       1.3       0.2
13 H  pz              0.1       0.2       0.1       0.0       0.0       0.2
13 H  px              0.3       0.3       0.1       0.0       0.0       0.0
13 H  py              0.1       0.0       0.0       0.0       0.1       0.0

                     18        19        20        21        22        23   
                  -0.44739  -0.42975  -0.40449  -0.38720  -0.37650  -0.32714
                   2.00000   2.00000   2.00000   2.00000   2.00000   2.00000
                  --------  --------  --------  --------  --------  --------
 0 O  s               3.2       0.1       0.1       0.2       0.9       4.3
 0 O  pz             10.7       0.2       2.6       0.2       5.8      20.3
 0 O  px              0.6       0.7       1.9       3.9       3.9       0.0
 0 O  py              4.1       9.5       5.1       3.7       7.5      17.2
 0 O  dz2             0.0       0.1       0.1       0.0       0.0       0.1
 0 O  dyz             0.0       0.1       0.0       0.0       0.0       0.1
 1 O  s               0.0       0.1       1.8       3.4       0.5       0.0
 1 O  pz              0.1       3.9       0.0      24.1       1.4       0.8
 1 O  px              0.6       6.4      19.1       8.7       0.2       0.1
 1 O  py              3.7       1.6       2.5       0.0       1.2       0.0
 1 O  dxy             0.0       0.0       0.0       0.2       0.0       0.0
 2 O  s               0.8       0.1       0.3       1.3       0.0       0.0
 2 O  pz              0.2       5.8       0.6      13.6       0.2       1.1
 2 O  px              5.8       2.1      11.8       3.3       1.1       1.1
 2 O  py              0.0       1.2       0.2       0.2       1.0       3.4
 2 O  dz2             0.0       0.1       0.1       0.1       0.0       0.0
 3 N  s               0.0       0.0       0.3       0.2       0.1       0.1
 3 N  pz              0.4      18.8       0.3       0.5       7.0       0.4
 3 N  px             13.4       1.2       5.2       0.6       0.1       0.7
 3 N  py             12.5       0.6       2.7       1.6       6.7       0.8
 3 N  dz2             0.0       0.2       0.0       0.0       0.2       0.0
 3 N  dxz             0.0       0.2       0.1       0.0       0.1       0.0
 3 N  dyz             0.0       0.0       0.0       0.0       0.1       0.0
 3 N  dx2y2           0.3       0.0       0.1       0.1       0.0       0.1
 4 C  s               0.3       0.1       0.1       0.2       0.4       0.1
 4 C  pz              0.0       0.4       0.7       0.8      16.5       4.0
 4 C  px              1.2       0.4       0.7       7.2       0.0       2.8
 4 C  py             12.9       0.7       4.2       0.3       5.0       0.5
 4 C  dz2             0.0       0.0       0.1       0.1       0.6       0.1
 4 C  dxz             0.0       0.0       0.2       0.1       0.1       0.0
[...]
 6 C  dyz             1.2       0.3       0.0       0.1       0.6       0.2
 6 C  dx2y2           0.1       0.1       0.1       0.1       0.5       0.0
 6 C  dxy             1.7       0.0       0.0       0.3       0.5       0.0
 7 H  s               0.5       0.8       2.0       1.1       0.4       1.8
 7 H  pz              2.4       4.4       9.2       5.3       2.1       7.3
 7 H  px              0.5       0.1       0.9       0.1       0.1       0.4
 7 H  py              0.1       0.0       0.1       0.0       0.1       0.5
 8 H  s               1.0       3.0       1.5       1.1       1.0       0.7
 8 H  pz              1.7       2.6       0.4       0.3       0.2       0.5
 8 H  px              5.1       9.7       3.7       3.4       3.2       0.9
 8 H  py              2.2       6.9       2.9       1.3       1.2       1.7
 9 H  s               3.6       0.1       0.8       0.7       0.1       0.6
 9 H  pz             24.0       1.6       3.1       3.0       0.2       1.5
 9 H  px              1.3       0.0       0.3       0.0       0.0       0.2
 9 H  py              0.5       0.0       0.1       0.0       0.0       0.5
10 H  s               0.4       5.0       0.3       0.1       2.1       3.9
10 H  pz              3.6      24.2       2.0       0.3       5.4       7.7
10 H  px              0.0       1.8       0.4       0.0       0.6       2.2
10 H  py              0.1       0.0       0.2       0.1       0.0       0.4
11 H  s               1.0       0.6       5.0       0.4       2.5       2.7
11 H  pz              3.5       2.7       7.4       0.5       1.9       2.3
11 H  px              2.8       1.6      14.1       1.0       5.0       3.6
11 H  py              0.2       0.2       0.4       0.0       0.4       0.5
12 H  s               0.8       0.0       1.4       2.8       2.0       5.4
12 H  pz              4.5       0.0       5.1       8.9       4.7      11.2
12 H  px              0.1       0.0       0.0       0.1       0.1       0.6
12 H  py              0.0       0.1       0.0       0.1       0.1       0.7
13 H  s               0.1       0.0       0.1       7.9       7.4       0.7
13 H  pz              0.9       0.1       0.2       4.6       2.3       0.2
13 H  px              0.4       0.1       0.2      10.9       8.2       0.8
13 H  py              0.1       0.0       0.0       6.0       7.2       0.6

                    132   
                   3.57771
                   0.00000
                  --------
 0 O  s               0.9
 0 O  pz              2.1
 0 O  px              0.1
 0 O  py              0.4
 0 O  dz2             5.8
 0 O  dxz             0.3
 1 O  s               0.2
 1 O  px              0.1
 1 O  py              0.2
 1 O  dxz             0.1
 1 O  dyz             0.2
 1 O  dxy             0.3
 3 N  s               0.1
 3 N  pz              1.3
 3 N  dz2             1.1
 3 N  dxz             1.8
 3 N  dx2y2           0.2
 3 N  dxy             0.3
 4 C  s               0.5
 4 C  pz              2.0
 4 C  dz2             4.8
 4 C  dxz             1.4
 4 C  dyz             0.6
 4 C  dxy             0.2
 5 C  pz              3.3
 5 C  px              0.6
 5 C  dz2             8.8
 5 C  dxz             0.3
 5 C  dyz             1.8
 5 C  dxy             0.7
 6 C  dxz             0.2
 6 C  dyz             0.3
 6 C  dx2y2           0.2
 7 H  s               2.6
 7 H  pz              9.7
 7 H  py              0.3
 8 H  s               1.2
 8 H  pz              0.6
 8 H  px              2.1
 8 H  py              1.3
 9 H  s               3.5
 9 H  pz             12.8
 9 H  py              1.0
10 H  s               1.0
10 H  pz              1.5
10 H  px              0.6
10 H  py              0.4
11 H  s               1.0
11 H  pz              1.0
11 H  px              1.3
11 H  py              0.2
12 H  s               4.5
12 H  pz              7.6
12 H  px              0.5
12 H  py              1.3
13 H  s               0.5
13 H  pz              0.1
13 H  px              0.5
13 H  py              0.4


                      *****************************
                      * MAYER POPULATION ANALYSIS *
                      *****************************

  NA   - Mulliken gross atomic population
  ZA   - Total nuclear charge
  QA   - Mulliken gross atomic charge
  VA   - Mayer's total valence
  BVA  - Mayer's bonded valence
  FA   - Mayer's free valence

  ATOM       NA         ZA         QA         VA         BVA        FA
  0 O      8.6009     8.0000    -0.6009     1.8559     1.8559    -0.0000
  1 O      8.4886     8.0000    -0.4886     2.0323     2.0323    -0.0000
  2 O      8.5136     8.0000    -0.5136     2.0226     2.0226    -0.0000
  3 N      7.6158     7.0000    -0.6158     2.8575     2.8575     0.0000
  4 C      6.0463     6.0000    -0.0463     3.8394     3.8394    -0.0000
  5 C      5.9312     6.0000     0.0688     3.8106     3.8106    -0.0000
  6 C      5.4452     6.0000     0.5548     3.9316     3.9316     0.0000
  7 H      0.8589     1.0000     0.1411     0.9479     0.9479    -0.0000
  8 H      0.8835     1.0000     0.1165     0.9503     0.9503     0.0000
  9 H      0.8750     1.0000     0.1250     0.9526     0.9526    -0.0000
 10 H      0.7360     1.0000     0.2640     0.9224     0.9224     0.0000
 11 H      0.7254     1.0000     0.2746     0.9034     0.9034     0.0000
 12 H      0.6473     1.0000     0.3527     0.8727     0.8727     0.0000
 13 H      0.6323     1.0000     0.3677     0.8784     0.8784    -0.0000

  Mayer bond orders larger than 0.100000
B(  0-O ,  5-C ) :   0.9445 B(  0-O , 12-H ) :   0.8559 B(  1-O ,  6-C ) :   1.1180 
B(  1-O , 13-H ) :   0.8257 B(  2-O ,  6-C ) :   1.8613 B(  3-N ,  4-C ) :   1.0269 
B(  3-N , 10-H ) :   0.8914 B(  3-N , 11-H ) :   0.8987 B(  4-C ,  5-C ) :   0.9644 
B(  4-C ,  6-C ) :   0.9064 B(  4-C ,  7-H ) :   0.9296 B(  5-C ,  8-H ) :   0.9430 
B(  5-C ,  9-H ) :   0.9457 

-------
TIMINGS
-------

Total SCF time: 0 days 0 hours 0 min 14 sec 

Total time                  ....      14.662 sec
Sum of individual times     ....      13.628 sec  ( 92.9%)

SCF preparation             ....       0.388 sec  (  2.6%)
Fock matrix formation       ....      13.014 sec  ( 88.8%)
  Startup                   ....       0.004 sec  (  0.0% of F)
  Split-RI-J                ....       0.811 sec  (  6.2% of F)
  Chain of spheres X        ....      10.131 sec  ( 77.8% of F)
  XC integration            ....       2.096 sec  ( 16.1% of F)
    XC Preparation          ....       0.000 sec  (  0.0% of XC)
    Basis function eval.    ....       0.835 sec  ( 39.9% of XC)
    Density eval.           ....       0.399 sec  ( 19.0% of XC)
    XC-Functional eval.     ....       0.155 sec  (  7.4% of XC)
    XC-Potential eval.      ....       0.546 sec  ( 26.1% of XC)
  CPCM terms                ....       0.931 sec  (  7.2% of F)
Diagonalization             ....       0.000 sec  (  0.0%)
Density matrix formation    ....       0.012 sec  (  0.1%)
Total Energy calculation    ....       0.007 sec  (  0.0%)
Population analysis         ....       0.123 sec  (  0.8%)
Orbital Transformation      ....       0.012 sec  (  0.1%)
Orbital Orthonormalization  ....       0.000 sec  (  0.0%)
DIIS solution               ....       0.055 sec  (  0.4%)
  MO trafo                  ....       0.006 sec  ( 11.0 % of DIIS)
  Orb grad                  ....       0.000 sec  (  0.0 % of DIIS)
  Energy W gradient         ....       0.000 sec  (  0.0 % of DIIS)
  DIIS error                ....       0.011 sec  ( 19.8 % of DIIS)
  DIIS work                 ....       0.029 sec  ( 52.7 % of DIIS)
  Form Q                    ....       0.000 sec  (  0.0 % of DIIS)
  Form QpQm                 ....       0.000 sec  (  0.0 % of DIIS)
  Exp/Cayley                ....       0.000 sec  (  0.0 % of DIIS)
  Orb update                ....       0.000 sec  (  0.0 % of DIIS)
  Wake-sleep                ....       0.003 sec  (  4.6 % of DIIS)
SOSCF solution              ....       0.017 sec  (  0.1%)
  MO trafo                  ....       0.008 sec  ( 47.7 % of SOSCF)
  Orb grad                  ....       0.001 sec  (  4.1 % of SOSCF)
  Rot update                ....       0.001 sec  (  7.0 % of SOSCF)
  Step                      ....       0.005 sec  ( 32.5 % of SOSCF)
Finished LeanSCF after  14.7 sec

Maximum memory used throughout the entire LEANSCF-calculation: 15.7 MB


-------------------------------------------------------------------------------
                          DFT DISPERSION CORRECTION                            
                                                                               
                              DFTD3 V3.1  Rev 1                                
                          USING Becke-Johnson damping                          
-------------------------------------------------------------------------------
The B3LYP functional is recognized
Active option DFTDOPT                   ...         4   

molecular C6(AA) [au] = 1571.412918 


            DFT-D V3
 parameters
 s6 scaling factor         :     1.0000 
 a1 scaling factor         :     0.3981 
 s8 scaling factor         :     1.9889 
 a2 scaling factor         :     4.4211 
 ad hoc parameters k1-k3   :    16.0000     1.3333    -4.0000 

 Edisp/kcal,au: -11.572939994533  -0.018442651846 
 E6   /kcal   :  -5.656099739 
 E8   /kcal   :  -5.916840255 
 % E8         :  51.126509408 

-------------------------   ----------------
Dispersion correction           -0.018442652
-------------------------   ----------------


-------------------------   --------------------
FINAL SINGLE POINT ENERGY      -398.790664748069
-------------------------   --------------------

                                *** OPTIMIZATION RUN DONE ***



           ************************************************************
           *        Program running with 2 parallel MPI-processes     *
           *              working on a common directory               *
           ************************************************************

------------------------------------------------------------------------------
                              ORCA PROPERTY CALCULATIONS
------------------------------------------------------------------------------

GBWName                                 ... /kaggle/working/Ser-1/Ser_InterFrag.gbw
Number of atoms                         ...     14
Number of basis functions               ...    133
Max core memory                         ...   3000 MB

Electric properties:
Dipole moment                           ... YES
Quadrupole moment                       ...  NO
Static polarizability (Dipole/Dipole)   ...  NO
Static polarizability (Dipole/Quad.)    ...  NO
Static polarizability (Quad./Quad.)     ...  NO
Static polarizability (Velocity)        ...  NO
Static hyperpolarizability              ...  NO

Atomic electric properties:
Dipole moment                           ...  NO
Quadrupole moment                       ...  NO
Static polarizability                   ...  NO

Choice of electric origin               ... Center of mass
Position of electric origin             ...     0.024726     0.089072    -0.016761

General magnetic properties:
Magnetizability                         ...  NO

EPR properties:
g-Tensor (aka g-matrix)                 ...  NO
Zero-Field splitting spin-orbit         ...  NO
Zero-field splitting spin-spin          ...  NO
Hyperfine couplings                     ...  NO (   0 nuclei)
Quadrupole couplings                    ...  NO (   0 nuclei)
Contact density                         ...  NO (   0 nuclei)

NMR properties:
Chemical shifts                         ...  NO (   0 nuclei)
Spin-rotation constants                 ...  NO (   0 nuclei)
Spin-spin couplings                     ...  NO (   0 nuclei,    0 pairs)

Choice of magnetic origin               ... GIAO
Position of magnetic origin             ...     0.000000     0.000000     0.000000

Properties with geometric perturbations:
SCF Hessian                             ...  NO
IR spectrum                             ...  NO
VCD spectrum                            ...  NO
X-ray spectroscopy properties:
SCF XES/XAS/RIXS spectra                ...  NO

SCF SOC stabilization energy            ...  NO
Diagonal Born-Oppenheimer correction    ...  NO

-------------
DIPOLE MOMENT
-------------

Method             : SCF
Type of density    : Electron Density
Multiplicity       :   1
Irrep              :   0
Energy             :  -398.7722220962228903 Eh
Basis              : AO
                                X                 Y                 Z
Electronic contribution:     -2.921714789       3.264972895      -0.149220406
Nuclear contribution   :      2.741457822      -3.081832521       1.389891379
                        -----------------------------------------
Total Dipole Moment    :     -0.180256967       0.183140374       1.240670973
                        -----------------------------------------
Magnitude (a.u.)       :      1.267003328
Magnitude (Debye)      :      3.220466526



--------------------
Rotational spectrum 
--------------------
 
Rotational constants in cm-1:             0.099328             0.084101             0.057161 
Rotational constants in MHz :          2977.778507          2521.287923          1713.658314 

Dipole components along the rotational axes: 
x,y,z [a.u.] :     0.224982     0.185495     1.232993 
x,y,z [Debye]:     0.571858     0.471491     3.134020 

 

Dipole moment calculation done in   0.0 sec 

Maximum memory used throughout the entire PROP-calculation: 7.5 MB

--------------------------------
SUGGESTED CITATIONS FOR THIS RUN
--------------------------------

Below you find a list of papers that are relevant to this ORCA run
We neither can nor want to force you to cite these papers, but we appreciate if you do
You receive ORCA, which is the product of decades of hard work by many enthusiastic individuals, for free
The only thing we kindly ask in return is that you cite our papers,
We deeply appreciate it, if you show your appreciation for ORCA by not just citing the generic ORCA reference.

Please note that relegating all ORCA citations to the supporting information does *not* help us.
SI sections are not indexed - citations you put there will not count into any citation statistics
But we need these citations in order to attract the funding resources that allow us to do what we are doing

Therefore, if you are a happy ORCA user, please consider citing a few of the papers listed below in the main body of your paper

In addition to the list printed below, the program has created the file /kaggle/working/Ser-1/Ser_InterFrag.bibtex that contains the list in bibtex format
You can import this file easily into all common literature databanks and citation aid programs

It goes without saying that in many instances, there are alternative algorithms to achieve similar
results as the ones you have gotten from ORCA. It is, of course, also the case that in some instances
ORCA just re-implements algorithms worked out by others. We are fully aware of that and we are also
fully appreciative of our colleagues work. Hence this citation list should not be read as indicating
that the listed papers, which are focused on our own work, are the only ones worth citing. It simply
meant to make it easier for users to cite ORCA specific papers. It is not a substitute for doing your
own literature research and citing the relevant literature in a scientifically appropriate manner.

List of essential papers. We consider these as the minimum necessary citations

  1. Neese, F.
     Software update: the ORCA program system, version 6.0
     WIRES Comput. Molec. Sci. 2025 15(1), e70019
     doi.org/10.1002/wcms.70019

List of papers to cite with high priority. The work reported in these papers was absolutely
necessary for this run to complete.
Our perspective: the developers of density functionals and basis sets usually get cited in chemistry papers
Good! But without the algorithms to do something with them, the functionals or basis sets would not do anything.
Hence, in our opinion, the algorithm design and method developments papers are equally worthy of getting cited

  1. Neese, F.
     An improvement of the resolution of the identity approximation for the formation of the Coulomb matrix
     J. Comp. Chem. 2003 24(14), 1740-1747
     doi.org/10.1002/jcc.10318
  2. Neese, F.; Wennmohs, F.; Hansen, A.; Becker, U.
     Efficient, approximate and parallel Hartree-Fock and hybrid DFT calculations. A 'chain-of-spheres' algorithm for the Hartree-Fock exchange
     Chem. Phys. 2009 356(1-3), 98-109
     doi.org/10.1016/j.chemphys.2008.10.036
  3. Grimme, S.; Antony, J.; Ehrlich, S.; Krieg, H.
     A consistent and accurate ab initio parametrization of density functional dispersion correction (DFT-D) for the 94 elements H-Pu
     J. Chem. Phys. 2010 132 , 154104
     doi.org/10.1063/1.3382344
  4. Grimme, S.; Ehrlich, S.; Goerigk, L.
     Effect of the damping function in dispersion corrected density functional theory
     J. Comput. Chem. 2011 32(7), 1456-1465
     doi.org/10.1002/jcc.21759
  5. Garcia-Rates, M.; Neese, F.
     Effect of the Solute Cavity on the Solvation Energy and its Derivatives within the Framework of the Gaussian Charge Scheme
     J. Comput. Chem. 2020 41 , 922-939
     doi.org/10.1002/jcc.26139
  6. Helmich-Paris, B.; de Souza, B.; Neese, F.; Izsák, R.
     An improved chain of spheres for exchange algorithm
     J. Chem. Phys. 2021 155(10), 104109
     doi.org/10.1063/5.0058766
  7. Neese, F.
     The SHARK Integral Generation and Digestion System
     J. Comp. Chem. 2022 44(3), 381
     doi.org/10.1002/jcc.26942

List of suggested additional citations. These are papers that are important in the 'surrounding' of 
of this run, or papers that preceded the highly important papers. If you like your results we are grateful for a citation.

  1. Izsak, R.; Neese, F.
     An overlap fitted chain of spheres exchange method
     J. Chem. Phys. 2011 135 , 144105
     doi.org/10.1063/1.3646921
  2. Izsak, R.; Hansen, A.; Neese, F.
     The resolution of identity and chain of spheres approximations for the LPNO-CCSD singles Fock term
     Molec. Phys. 2012 110 , 2413-2417
     doi.org/10.1080/00268976.2012.687466
  3. Neese, F.
     The ORCA program system
     WIRES Comput. Molec. Sci. 2012 2(1), 73-78
     doi.org/10.1002/wcms.81
  4. Izsak, R.; Neese, F.; Klopper, W.
     Robust fitting techniques in the chain of spheres approximation to the Fock exchange: The role of the complementary space
     J. Chem. Phys. 2013 139 , 
     doi.org/10.1063/1.4819264
  5. Neese, F.
     Software update: the ORCA program system, version 4.0
     WIRES Comput. Molec. Sci. 2018 8(1), 1-6
     doi.org/10.1002/wcms.1327
  6. Neese, F.; Wennmohs, F.; Becker, U.; Riplinger, C.
     The ORCA quantum chemistry program package
     J. Chem. Phys. 2020 152(22), 224108
     doi.org/10.1063/5.0004608
  7. Neese, F.
     Software update: The ORCA program system—Version 5.0
     WIRES Comput. Molec. Sci. 2022 12(1), e1606
     doi.org/10.1002/wcms.1606

List of optional additional citations

  1. Neese, F.
     Approximate second-order SCF convergence for spin unrestricted wavefunctions
     Chem. Phys. Lett. 2000 325(1-3), 93-98
     doi.org/10.1016/s0009-2614(00)00662-x

Timings for individual modules:

Sum of individual times          ...      285.706 sec (=   4.762 min)
Startup calculation              ...       14.128 sec (=   0.235 min)   4.9 %
SCF iterations                   ...      165.903 sec (=   2.765 min)  58.1 %
Property calculations            ...        0.399 sec (=   0.007 min)   0.1 %
SCF Gradient evaluation          ...      105.225 sec (=   1.754 min)  36.8 %
Geometry relaxation              ...        0.050 sec (=   0.001 min)   0.0 %
                             ****ORCA TERMINATED NORMALLY****
TOTAL RUN TIME: 0 days 0 hours 4 minutes 50 seconds 117 msec
