
                                 *****************
                                 * O   R   C   A *
                                 *****************

                                            #,                                       
                                            ###                                      
                                            ####                                     
                                            #####                                    
                                            ######                                   
                                           ########,                                 
                                     ,,################,,,,,                         
                               ,,#################################,,                 
                          ,,##########################################,,             
                       ,#########################################, ''#####,          
                    ,#############################################,,   '####,        
                  ,##################################################,,,,####,       
                ,###########''''           ''''###############################       
              ,#####''   ,,,,##########,,,,          '''####'''          '####       
            ,##' ,,,,###########################,,,                        '##       
           ' ,,###''''                  '''############,,,                           
         ,,##''                                '''############,,,,        ,,,,,,###''
      ,#''                                            '''#######################'''  
     '                                                          ''''####''''         
             ,#######,   #######,   ,#######,      ##                                
            ,#'     '#,  ##    ##  ,#'     '#,    #''#        ,####,    ,#,          
            ##       ##  ##   ,#'  ##            #'  '#       #'       ,# #          
            ##       ##  #######   ##           ,######,      #####,      #          
            '#,     ,#'  ##    ##  '#,     ,#' ,#      #,     #,   #      #          
             '#######'   ##     ##  '#######'  #'      '#     '####' #    #          



                #########################################################
                #                        -***-                          #
                #          Department of theory and spectroscopy        #
                #                                                       #
                #                      Frank Neese                      #
                #                                                       #
                #     Directorship, Architecture, Infrastructure        #
                #                    SHARK, DRIVERS                     #
                #        Core code/Algorithms in most modules           #
                #                                                       #
                #        Max Planck Institute fuer Kohlenforschung      #
                #                Kaiser Wilhelm Platz 1                 #
                #                 D-45470 Muelheim/Ruhr                 #
                #                      Germany                          #
                #                                                       #
                #                  All rights reserved                  #
                #                        -***-                          #
                #########################################################


                         Program Version 6.1.1  -  RELEASE   -
                                (GIT: $487d211c$)
                          ($2025-11-21 10:33:24 +0100$)
                                                                         
                                  - NO-DMRG VERSION -                    
                                                                         


 With contributions from (in alphabetic order):
[Max-Planck-Institut fuer Kohlenforschung]                               
  Daniel Aravena         : Magnetic Suceptibility                        
  Michael Atanasov       : Ab Initio Ligand Field Theory (pilot matlab implementation)
  Alexander A. Auer      : GIAO ZORA, VPT2 properties, NMR spectrum      
  Ute Becker             : All parallelization in ORCA, NUMFREQ, NUMCALC 
  Giovanni Bistoni       : ED, misc. LED, open-shell LED, HFLD           
  Dmytro Bykov           : pre 5.0 version of the SCF Hessian            
  Marcos Casanova-Páez   : Triplet and SCS-CIS(D). UHF-(DLPNO)-IP/EA/STEOM-CCSD. UHF-CVS-IP/STEOM-CCSD   
  Vijay G. Chilkuri      : MRCI spin determinant printing, contributions to CSF-ICE 
  Pauline Colinet        : FMM embedding                                 
  Dipayan Datta          : RHF DLPNO-CCSD density                        
  Achintya Kumar Dutta   : EOM-CC, STEOM-CC                              
  Nicolas Foglia         : Exact transition moments, OPA infrastructure, MCD improvements    
  Dmitry Ganyushin       : Spin-Orbit,Spin-Spin,Magnetic field MRCI      
  Miquel Garcia-Rates    : C-PCM and meta-GGA Hessian, CCSD/C-PCM, Gaussian charge scheme 
  Tiago L. C. Gouveia    : GS-ROHF, GS-ROCIS                             
  Yang Guo               : DLPNO-NEVPT2, F12-NEVPT2, CIM, IAO-localization        
  Andreas Hansen         : Spin unrestricted coupled pair/coupled cluster methods 
  Ingolf Harden          : AUTO-CI MPn and infrastructure                
  Benjamin Helmich-Paris : MC-RPA, TRAH-(SCF,CASSCF), AVAS, COSX integrals, SCF dyn. polar., MC-PDFT, srDFT 
  Lee Huntington         : MR-EOM, pCC                                   
  Robert Izsak           : Overlap fitted RIJCOSX, COSX-SCS-MP3, EOM     
  Riya Kayal             : Wick's Theorem for AUTO-CI, AUTO-CI UHF-CCSDT 
  Emily Kempfer          : AUTO-CI RHF CISDT and CCSDT, approximate NEVPT4
  Christian Kollmar      : KDIIS, OOCD, Brueckner-CCSD(T), CCSD density, CASPT2, CASPT2-K, improved NEVPT2 
  Axel Koslowski         : Symmetry handling                             
  Simone Kossmann        : meta-GGA functionals, TD-DFT gradient, OOMP2, (MP2 Hessian; deprecated post 5.0) 
  Lucas Lang             : DCDCAS, Hyperfine gauge corrections, ICE-SOC+SSC
  Marvin Lechner         : AUTO-CI (C++ implementation), FIC-MRCC        
  Spencer Leger          : CASSCF response                               
  Dagmar Lenk            : GEPOL surface, SMD, ORCA-2-JSON               
  Dimitrios Liakos       : Extrapolation schemes; Compound Job, Property file
  Dimitrios Manganas     : Further ROCIS development; embedding schemes. LFT, Crystal Embedding 
  Dimitrios Pantazis     : SARC Basis sets                               
  Anastasios Papadopoulos: AUTO-CI, single reference methods and gradients 
  Taras Petrenko         : pre 6.0 DFT Hessian and TD-DFT gradient,  ECA, NRVS 
  Petra Pikulova         : Analytic Raman intensities                    
  Peter Pinski           : DLPNO-MP2, DLPNO-MP2 Gradient                 
  Shashank Vittal Rao    : ES-AILFT, MagRelax                            
  Christoph Reimann      : Effective Core Potentials                     
  Marius Retegan         : Local ZFS, SOC                                
  Christoph Riplinger    : Optimizer, TS searches, QM/MM, DLPNO-CCSD(T), (RO)-DLPNO pert. Triples 
  Michael Roemelt        : Original ROCIS implementation, recursive CI coupling coefficients
  Masaaki Saitow         : Open-shell DLPNO-CCSD energy and density      
  Barbara Sandhoefer     : DKH picture change effects                    
  Yorick L. A. Schmerwitz: GMF and freeze-and-release deltaSCF, NEB S-IDPP initial path                    
  Kantharuban Sivalingam : CASSCF convergence/infrastructure, NEVPT2, NEVPT3, NEVPT4(SD), FIC-MRCI and CEPA variants
  Bernardo de Souza      : ESD, SOC TD-DFT                               
  Georgi L. Stoychev     : AutoAux, RI-MP2 NMR, DLPNO-MP2 response, X2C  
  Van Anh Tran           : RI-MP2 g-tensors                              
  Willem Van den Heuvel  : Paramagnetic NMR                              
  Zikuan Wang            : NOTCH, Electric field optimization            
  Frank Wennmohs         : Technical directorship and infrastructure     
  Hang Xu                : AUTO-CI-Response properties                   
                                                                         
[FACCTs GmbH]                                                            
  Markus Bursch, Nicolas Foglia, Miquel Garcia-Rates, Ingolf Harden, Hagen Neugebauer, Anastasios Papadopoulos, 
  Christoph Riplinger, Bernardo de Souza, Georgi L. Stoychev                                                    
                                                                 
  APM, various basis sets, CI-OPT, improved COSX, DLPNO-Multilevel,           
  DOCKER, DRACO, updates on ESD, Fragmentator, GOAT, IRC, LR-CPCM, L-BFGS, MBIS, meta-GGA TD-DFT gradient, ML-optimized integration grids, 
  MM, NACMEs, nearIR, NEB, NEB-TS, NL-DFT gradient (VV10), 2- and 3-layer-ONIOM, interface openCOSMO-RS, QMMM,   
  Crystal-QMMM, RESP, rigid body optimization, SF, symmetry and pop. for TD-DFT, various functionals, SOLVATOR                                   
                                                                         
[Other institutions]                                                     
  V. Asgeirsson          : NEB                                           
  Christoph Bannwarth    : sTDA-DFT, sTD-DFT, PBEh-3c, B97-3c, D3        
  Giovanni Bistoni       : ETS/NOCV, ADLD/ADEX, COVALED                  
  Martin Brehm           : Molecular dynamics                            
  Ronald Cardenas        : ETS/NOCV                                      
  Martina Colucci        : COVALED                                       
  Sebastian Ehlert       : rSCAN, r2SCAN, r2SCAN-3c, D4, dhf basis sets  
  Marvin Friede          : D4 for Fr, Ra, Ac-Lr                          
  Lars Goerigk           : TD-DFT with DH, B97 family of functionals     
  Stefan Grimme          : VdW corrections, initial TS optimization, DFT functionals, gCP, sTDA/sTD-DF 
  Waldemar Hujo          : DFT-NL                                        
  H. Jonsson             : NEB                                           
  Holger Kruse           : gCP                                           
  Marcel Mueller         : wB97X-3c, vDZP basis set                      
  Hagen Neugebauer       : wr2SCAN, Native XTB                           
  Gianluca Regni         : ADLD/ADEX                                     
  Tobias Risthaus        : pre 6.0 range-separated hybrid DFT and stability analysis
  Lukas Wittmann         : regularized MP2, r2SCAN double-hybrids, wr2SCAN        
                                                                         
We gratefully acknowledge several colleagues who have allowed us to      
interface, adapt or use parts of their codes:                            
  Ed Valeev, F. Pavosevic, A. Kumar             : LibInt (2-el integral package), F12 methods 
  Garnet Chan, S. Sharma, J. Yang, R. Olivares  : DMRG                   
  Ulf Ekstrom                                   : XCFun DFT Library      
  Mihaly Kallay                                 : mrcc  (arbitrary order and MRCC methods)
  Frank Weinhold                                : gennbo (NPA and NBO analysis)           
  Simon Mueller                                 : openCOSMO-RS                            
  Christopher J. Cramer and Donald G. Truhlar   : smd solvation model                     
  S Lehtola, MJT Oliveira, MAL Marques          : LibXC Library                           
  Liviu Ungur et al                             : ANISO software                          


 Your calculation uses the libint2 library for the computation of 2-el integrals
 For citations please refer to: http://libint.valeyev.net

 Your ORCA version has been built with support for libXC version: 7.0.0
 For citations please refer to: https://libxc.gitlab.io

 This ORCA versions uses:
   CBLAS   interface :  Fast vector & matrix operations
   LAPACKE interface :  Fast linear algebra routines
   SCALAPACK package :  Parallel linear algebra routines
   Shared memory     :  Shared parallel matrices
   BLAS/LAPACK       :  OpenBLAS 0.3.29  USE64BITINT DYNAMIC_ARCH NO_AFFINITY SkylakeX SINGLE_THREADED
        Core in use  :  SkylakeX
   Copyright (c) 2011-2014, The OpenBLAS Project


  ***********************************
  * Starting time: Sat Mar 28 19:46:05 2026
  * Host name:     ab79031ffa68
  * Process ID:    608
  * Working dir.:  /kaggle/working
  ***********************************

NOTE: MaxCore=3000 MB was set to SCF,MP2,MDCI,CIPSI,MRCI,RASCI and CIS
      => If you want to overwrite this, your respective input block should be placed after the MaxCore statement
Your calculation utilizes the atom-pairwise dispersion correction
with the Becke-Johnson damping scheme (D3BJ)


Warning: RI is on but no J-basis has been assigned. Assigning Def2/J (nothing to worry about!)
================================================================================

----- Orbital basis set information -----
Your calculation utilizes the basis: 6-31G(d,p)
   H-He, Li-Ne : W. J. Hehre, R. Ditchfield and J.A. Pople, J. Chem. Phys. 56, 2257 (1972).
                 Note: He and Ne are unpublished basis sets taken from the Gaussian program.
                 Note: Li and B from J. D. Dill and J. A. Pople, J. Chem. Phys. 62, 2921 (1975).
   Na - Ar     : M. M. Francl, W. J. Pietro, W. J. Hehre, J. S. Binkley, M. S. Gordon, 
                 D. J. DeFrees and J. A. Pople, J. Chem. Phys. 77, 3654 (1982).
   K - Zn      : V. A. Rassolov, J. A. Pople, M. A. Ratner, and T. L. Windus, J. Chem. Phys. 109, 1223 (1998).

----- AuxJ basis set information -----
Your calculation utilizes the auxiliary basis: def2/J
   H-Rn: F. Weigend, Phys. Chem. Chem. Phys. 8, 1057 (2006).
   Fr-Lr: K. Eichkorn, F. Weigend, O. Treutler, R. Ahlrichs; Theor. Chem. Acc. 97, 119 (1997).

================================================================================
                                        WARNINGS
                       Please study these warnings very carefully!
================================================================================


================================================================================
                                       INPUT FILE
================================================================================
NAME = /kaggle/working/Ser-2/Ser_InterFrag.inp
|  1> 
|  2> !RKS B3LYP 6-31G(d,p) TightSCF D3BJ # def2-TZVPP
|  3> 
|  4> %pal nprocs 2 end
|  5> %maxcore 3000
|  6> 
|  7> %elprop
|  8>   Polar 1      # polarizability via CP-SCF
|  9> end
| 10> 
| 11> %output
| 12>   PrintLevel Normal
| 13>   Print[ P_OrbEn ] 2
| 14> end
| 15> 
| 16> *xyz 0 1
| 17>   O      1.885600    1.048618   -0.293236
| 18>   O     -0.953757    1.452615    0.784654
| 19>   O     -1.555631    0.185882   -0.982235
| 20>   N     -0.151349   -2.010828    0.274482
| 21>   C      0.220241   -0.611011    0.464405
| 22>   C      1.504967   -0.321207   -0.332197
| 23>   C     -0.857193    0.360655    0.004277
| 24>   H      0.416871   -0.428572    1.524434
| 25>   H      2.297670   -0.978643    0.046238
| 26>   H      1.331743   -0.565301   -1.385981
| 27>   H     -0.509310   -2.106852   -0.675809
| 28>   H     -0.942800   -2.217688    0.881395
| 29>   H      2.063850    1.274079    0.631862
| 30>   H     -1.632901    2.039952    0.402911
| 31> 
| 32> *
| 33> 
| 34>                          ****END OF INPUT****
================================================================================

                       ****************************
                       * Single Point Calculation *
                       ****************************

---------------------------------
CARTESIAN COORDINATES (ANGSTROEM)
---------------------------------
  O      1.885600    1.048618   -0.293236
  O     -0.953757    1.452615    0.784654
  O     -1.555631    0.185882   -0.982235
  N     -0.151349   -2.010828    0.274482
  C      0.220241   -0.611011    0.464405
  C      1.504967   -0.321207   -0.332197
  C     -0.857193    0.360655    0.004277
  H      0.416871   -0.428572    1.524434
  H      2.297670   -0.978643    0.046238
  H      1.331743   -0.565301   -1.385981
  H     -0.509310   -2.106852   -0.675809
  H     -0.942800   -2.217688    0.881395
  H      2.063850    1.274079    0.631862
  H     -1.632901    2.039952    0.402911

----------------------------
CARTESIAN COORDINATES (A.U.)
----------------------------
  NO LB      ZA    FRAG     MASS         X           Y           Z
   0 O     8.0000    0    15.999    3.563268    1.981601   -0.554136
   1 O     8.0000    0    15.999   -1.802340    2.745045    1.482781
   2 O     8.0000    0    15.999   -2.939717    0.351266   -1.856155
   3 N     7.0000    0    14.007   -0.286008   -3.799914    0.518696
   4 C     6.0000    0    12.011    0.416195   -1.154643    0.877598
   5 C     6.0000    0    12.011    2.843975   -0.606993   -0.627761
   6 C     6.0000    0    12.011   -1.619860    0.681539    0.008082
   7 H     1.0000    0     1.008    0.787772   -0.809884    2.880763
   8 H     1.0000    0     1.008    4.341967   -1.849367    0.087377
   9 H     1.0000    0     1.008    2.516630   -1.068264   -2.619125
  10 H     1.0000    0     1.008   -0.962456   -3.981373   -1.277094
  11 H     1.0000    0     1.008   -1.781634   -4.190823    1.665595
  12 H     1.0000    0     1.008    3.900111    2.407660    1.194046
  13 H     1.0000    0     1.008   -3.085736    3.854951    0.761391

--------------------------------
INTERNAL COORDINATES (ANGSTROEM)
--------------------------------
 O      0   0   0     0.000000000000     0.00000000     0.00000000
 O      1   0   0     3.063822547335     0.00000000     0.00000000
 O      2   1   0     2.255828349739    84.12594446     0.00000000
 N      3   2   1     2.894284087251    87.51542549    66.17775876
 C      4   3   2     1.460697609883    56.80685614   331.05104726
 C      1   2   3     1.422258756639    83.60501670   310.73501497
 C      3   2   1     1.221297329694    30.04624254    50.69151125
 H      5   4   3     1.093438990736   109.37142082   135.50658705
 H      6   1   2     1.097184209479   111.98151186   223.45879018
 H      6   1   2     1.095467550258   106.45591831   105.38267137
 H      4   3   2     1.020004740566    59.77796887   188.22038937
 H      4   3   2     1.018591740871    92.05487816    81.71983960
 H      1   2   3     0.968716694718    78.68896361   201.47647537
 H      2   1   3     0.975668510486   125.93098803   285.42207889

---------------------------
INTERNAL COORDINATES (A.U.)
---------------------------
 O      0   0   0     0.000000000000     0.00000000     0.00000000
 O      1   0   0     5.789785537396     0.00000000     0.00000000
 O      2   1   0     4.262897786142    84.12594446     0.00000000
 N      3   2   1     5.469404278670    87.51542549    66.17775876
 C      4   3   2     2.760318447152    56.80685614   331.05104726
 C      1   2   3     2.687679541618    83.60501670   310.73501497
 C      3   2   1     2.307917481210    30.04624254    50.69151125
 H      5   4   3     2.066300236643   109.37142082   135.50658705
 H      6   1   2     2.073377674378   111.98151186   223.45879018
 H      6   1   2     2.070133658585   106.45591831   105.38267137
 H      4   3   2     1.927529614972    59.77796887   188.22038937
 H      4   3   2     1.924859432520    92.05487816    81.71983960
 H      1   2   3     1.830609254374    78.68896361   201.47647537
 H      2   1   3     1.843746282309   125.93098803   285.42207889

---------------------
BASIS SET INFORMATION
---------------------
There are 4 groups of distinct atoms

 Group   1 Type O   : 10s4p1d contracted to 3s2p1d pattern {631/31/1}
 Group   2 Type N   : 10s4p1d contracted to 3s2p1d pattern {631/31/1}
 Group   3 Type C   : 10s4p1d contracted to 3s2p1d pattern {631/31/1}
 Group   4 Type H   : 4s1p contracted to 2s1p pattern {31/1}

Atom   0O    basis set group =>   1
Atom   1O    basis set group =>   1
Atom   2O    basis set group =>   1
Atom   3N    basis set group =>   2
Atom   4C    basis set group =>   3
Atom   5C    basis set group =>   3
Atom   6C    basis set group =>   3
Atom   7H    basis set group =>   4
Atom   8H    basis set group =>   4
Atom   9H    basis set group =>   4
Atom  10H    basis set group =>   4
Atom  11H    basis set group =>   4
Atom  12H    basis set group =>   4
Atom  13H    basis set group =>   4
---------------------------------
AUXILIARY/J BASIS SET INFORMATION
---------------------------------
There are 4 groups of distinct atoms

 Group   1 Type O   : 12s5p4d2f1g contracted to 6s4p3d1f1g pattern {711111/2111/211/2/1}
 Group   2 Type N   : 12s5p4d2f1g contracted to 6s4p3d1f1g pattern {711111/2111/211/2/1}
 Group   3 Type C   : 12s5p4d2f1g contracted to 6s4p3d1f1g pattern {711111/2111/211/2/1}
 Group   4 Type H   : 5s2p1d contracted to 3s1p1d pattern {311/2/1}

Atom   0O    basis set group =>   1
Atom   1O    basis set group =>   1
Atom   2O    basis set group =>   1
Atom   3N    basis set group =>   2
Atom   4C    basis set group =>   3
Atom   5C    basis set group =>   3
Atom   6C    basis set group =>   3
Atom   7H    basis set group =>   4
Atom   8H    basis set group =>   4
Atom   9H    basis set group =>   4
Atom  10H    basis set group =>   4
Atom  11H    basis set group =>   4
Atom  12H    basis set group =>   4
Atom  13H    basis set group =>   4


           ************************************************************
           *        Program running with 2 parallel MPI-processes     *
           *              working on a common directory               *
           ************************************************************
------------------------------------------------------------------------------
                             ORCA STARTUP CALCULATIONS
                           -- RI-GTO INTEGRALS CHOSEN --
------------------------------------------------------------------------------
------------------------------------------------------------------------------
                   ___                                                        
                  /   \      - P O W E R E D   B Y -                         
                 /     \                                                     
                 |  |  |   _    _      __       _____    __    __             
                 |  |  |  | |  | |    /  \     |  _  \  |  |  /  |          
                  \  \/   | |  | |   /    \    | | | |  |  | /  /          
                 / \  \   | |__| |  /  /\  \   | |_| |  |  |/  /          
                |  |  |   |  __  | /  /__\  \  |    /   |      \           
                |  |  |   | |  | | |   __   |  |    \   |  |\   \          
                \     /   | |  | | |  |  |  |  | |\  \  |  | \   \       
                 \___/    |_|  |_| |__|  |__|  |_| \__\ |__|  \__/        
                                                                              
                      - O R C A' S   B I G   F R I E N D -                    
                                      &                                       
                       - I N T E G R A L  F E E D E R -                       
                                                                              
 v1 FN, 2020, v2 2021, v3 2022-2024                                           
------------------------------------------------------------------------------


----------------------
SHARK INTEGRAL PACKAGE
----------------------

Number of atoms                             ...     14
Number of basis functions                   ...    133
Number of shells                            ...     63
Maximum angular momentum                    ...      2
Integral batch strategy                     ... SHARK/LIBINT Hybrid
RI-J (if used) integral strategy            ... SPLIT-RIJ (Revised 2003 algorithm where possible)
Printlevel                                  ...      1
Contraction scheme used                     ... SEGMENTED contraction
Prescreening option                         ... SCHWARTZ
   Thresh                                   ... 2.500e-11
   Tcut                                     ... 2.500e-12
   Tpresel                                  ... 2.500e-12 
Coulomb Range Separation                    ... NOT USED
Exchange Range Separation                   ... NOT USED
Multipole approximations                    ... NOT USED
Finite Nucleus Model                        ... NOT USED
CABS basis                                  ... NOT available
Auxiliary Coulomb fitting basis             ... AVAILABLE
   # of basis functions in Aux-J            ...    420
   # of shells in Aux-J                     ...    140
   Maximum angular momentum in Aux-J        ...      4
Auxiliary J/K fitting basis                 ... NOT available
Auxiliary Correlation fitting basis         ... NOT available
Auxiliary 'external' fitting basis          ... NOT available

Checking pre-screening integrals            ... done (  0.0 sec) Dimension = 63
   => SHARK Basis and OBASIS are compatible. Storing Pre-screening
Shell pair information
Shell pair cut-off parameter TPreSel        ...   2.5e-12
Total number of shell pairs                 ...      2016
Shell pairs after pre-screening             ...      1916
Total number of primitive shell pairs       ...     10038
Primitive shell pairs kept                  ...      6614
          la=0 lb=0:    591 shell pairs
          la=1 lb=0:    691 shell pairs
          la=1 lb=1:    221 shell pairs
          la=2 lb=0:    239 shell pairs
          la=2 lb=1:    146 shell pairs
          la=2 lb=2:     28 shell pairs

Checking whether 4 symmetric matrices of dimension 133 fit in memory
:Max Core in MB      =   3000.00
 MB in use           =      5.99
 MB left             =   2994.01
 MB needed           =      0.27
 Data fit in memory  = YES
Calculating RI/J V-Matrix + Cholesky decomp.... done (  0.0 sec)
Calculating Nuclear repulsion               ... done (  0.0 sec) ENN=    325.036726845102 Eh

Diagonalization of the overlap matrix:
Smallest eigenvalue                        ... 3.581e-03
Time for diagonalization                   ...    0.002 sec
Threshold for overlap eigenvalues          ... 1.000e-07
Number of eigenvalues below threshold      ... 0
Time for construction of square roots      ...    0.001 sec
Total time needed                          ...    0.003 sec

-------------------
DFT GRID GENERATION
-------------------

General Integration Accuracy     IntAcc      ... 4.388
Radial Grid Type                 RadialGrid  ... OptM3 with GC (2021)
Angular Grid (max. ang.)         AngularGrid ... 4 (Lebedev-302)
Angular grid pruning method      GridPruning ... 4 (adaptive)
Weight generation scheme         WeightScheme... mBecke (2022)
Basis function cutoff            BFCut       ... 1.0000e-11
Integration weight cutoff        WCut        ... 1.0000e-14
Partially contracted basis set               ... off
Rotationally invariant grid construction     ... off
Angular grids for H and He will be reduced by one unit

Total number of grid points                  ...    64964
Total number of batches                      ...     1021
Average number of points per batch           ...       63
Average number of grid points per atom       ...     4640

--------------------
COSX GRID GENERATION
--------------------

GRIDX 1
-------
General Integration Accuracy     IntAcc      ... 3.816
Radial Grid Type                 RadialGrid  ... OptM3 with GC (2021)
Angular Grid (max. ang.)         AngularGrid ... 1 (Lebedev-50)
Angular grid pruning method      GridPruning ... 4 (adaptive)
Weight generation scheme         WeightScheme... mBecke (2022)
Basis function cutoff            BFCut       ... 1.0000e-11
Integration weight cutoff        WCut        ... 1.0000e-14
Partially contracted basis set               ... on
Rotationally invariant grid construction     ... off
Angular grids for H and He will be reduced by one unit

Total number of grid points                  ...     8319
Total number of batches                      ...       74
Average number of points per batch           ...      112
Average number of grid points per atom       ...      594
UseSFitting                                  ... on

GRIDX 2
-------
General Integration Accuracy     IntAcc      ... 4.020
Radial Grid Type                 RadialGrid  ... OptM3 with GC (2021)
Angular Grid (max. ang.)         AngularGrid ... 2 (Lebedev-110)
Angular grid pruning method      GridPruning ... 4 (adaptive)
Weight generation scheme         WeightScheme... mBecke (2022)
Basis function cutoff            BFCut       ... 1.0000e-11
Integration weight cutoff        WCut        ... 1.0000e-14
Partially contracted basis set               ... on
Rotationally invariant grid construction     ... off
Angular grids for H and He will be reduced by one unit

Total number of grid points                  ...    18106
Total number of batches                      ...      147
Average number of points per batch           ...      123
Average number of grid points per atom       ...     1293
UseSFitting                                  ... on

GRIDX 3
-------
General Integration Accuracy     IntAcc      ... 4.338
Radial Grid Type                 RadialGrid  ... OptM3 with GC (2021)
Angular Grid (max. ang.)         AngularGrid ... 3 (Lebedev-194)
Angular grid pruning method      GridPruning ... 4 (adaptive)
Weight generation scheme         WeightScheme... mBecke (2022)
Basis function cutoff            BFCut       ... 1.0000e-11
Integration weight cutoff        WCut        ... 1.0000e-14
Partially contracted basis set               ... on
Rotationally invariant grid construction     ... off
Angular grids for H and He will be reduced by one unit

Total number of grid points                  ...    39752
Total number of batches                      ...      317
Average number of points per batch           ...      125
Average number of grid points per atom       ...     2839
UseSFitting                                  ... on
Grids setup in   1.0 sec
Initializing property integral containers    ... done (  0.0 sec)

SHARK setup successfully completed in   1.1 seconds

Maximum memory used throughout the entire STARTUP-calculation: 22.1 MB


           ************************************************************
           *        Program running with 2 parallel MPI-processes     *
           *              working on a common directory               *
           ************************************************************
-------------------------------------------------------------------------------
                                 ORCA GUESS
                   Start orbitals & Density for SCF / CASSCF
-------------------------------------------------------------------------------

------------
SCF SETTINGS
------------
Hamiltonian:
 Density Functional     Method          .... DFT(GTOs)
 Exchange Functional    Exchange        .... B88
   X-Alpha parameter    XAlpha          ....  0.666667
   Becke's b parameter  XBeta           ....  0.004200
 Correlation Functional Correlation     .... LYP
 LDA part of GGA corr.  LDAOpt          .... VWN-5
 Gradients option       PostSCFGGA      .... off
 Hybrid DFT is turned on
   Fraction HF Exchange ScalHFX         ....  0.200000
   Scaling of DF-GGA-X  ScalDFX         ....  0.720000
   Scaling of DF-GGA-C  ScalDFC         ....  0.810000
   Scaling of DF-LDA-C  ScalLDAC        ....  1.000000
   Perturbative correction              ....  0.000000
   NL short-range parameter             ....  4.800000
 RI-approximation to the Coulomb term is turned on
   Number of AuxJ basis functions       .... 420
   RIJ-COSX (HFX calculated with COS-X)).... on


General Settings:
 Integral files         IntName         .... /kaggle/working/Ser-2/Ser_InterFrag
 Hartree-Fock type      HFTyp           .... RHF
 Total Charge           Charge          ....    0
 Multiplicity           Mult            ....    1
 Number of Electrons    NEL             ....   56
 Basis Dimension        Dim             ....  133
 Nuclear Repulsion      ENuc            ....    325.0367268451 Eh

Convergence Acceleration:
 AO-DIIS                CNVDIIS         .... on
   Start iteration      DIISMaxIt       ....    12
   Startup error        DIISStart       ....  0.200000
   # of expansion vecs  DIISMaxEq       ....     5
   Bias factor          DIISBfac        ....   1.050
   Max. coefficient     DIISMaxC        ....  10.000
 MO-DIIS                CNVKDIIS        .... off
 Trust-Rad. Augm. Hess. CNVTRAH         .... auto
   Auto Start mean grad. ratio tolernc. ....  1.125000
   Auto Start start iteration           ....    50
   Auto Start num. interpolation iter.  ....    10
   Max. Number of Micro iterations      ....    24
   Max. Number of Macro iterations      .... Maxiter - #DIIS iter
   Number of Davidson start vectors     ....     2
   Converg. threshold    (grad. norm)   ....   1.000e-05
   Grad. Scal. Fac. for Micro threshold ....   0.100
   Minimum threshold for Micro iter.    ....   1.000e-02
   NR start threshold (gradient norm)   ....   1.000e-04
   Initial trust radius                 ....   0.400
   Minimum AH scaling param. (alpha)    ....   1.000
   Maximum AH scaling param. (alpha)    .... 1000.000
   Quad. conv. algorithm                .... NR
   White noise on init. David. guess    .... on
   Maximum white noise                  ....   0.010
   Pseudo random numbers                .... off
   Inactive MOs                         .... canonical
   Orbital update algorithm             .... Taylor
   Preconditioner                       .... Diag
   Full preconditioner red. dimension   ....   250
 SOSCF                 CNVSOSCF           .... on
   Start iteration     SOSCFMaxIt         ....   150
   Startup grad/error  SOSCFStart         ....  0.003300
   Hessian update      SOSCFHessUp        .... L-BFGS
   Autom. constraints  SOSCFAutoConstrain .... off
 Level Shifting         CNVShift        .... on
   Level shift para.    LevelShift      ....    0.2500
   Turn off err/grad.   ShiftErr        ....    0.0010
 Zerner damping         CNVZerner       .... off
 Static damping         CNVDamp         .... on
   Fraction old density DampFac         ....    0.7000
   Max. Damping (<1)    DampMax         ....    0.9800
   Min. Damping (>=0)   DampMin         ....    0.0000
   Turn off err/grad.   DampErr         ....    0.1000

SCF Procedure:
 Maximum # iterations   MaxIter         ....   125
 SCF integral mode      SCFMode         .... Direct
   Integral package                     .... SHARK and LIBINT hybrid scheme
 Reset frequency        DirectResetFreq ....    20
 Integral Threshold     Thresh          ....  2.500e-11 Eh
 Primitive CutOff       TCut            ....  2.500e-12 Eh

Convergence Tolerance:
 Convergence Check Mode ConvCheckMode   .... Total+1el-Energy
 Convergence forced     ConvForced      .... 0
 Energy Change          TolE            ....  1.000e-08 Eh
 1-El. energy change                    ....  1.000e-05 Eh
 Orbital Gradient       TolG            ....  1.000e-05
 Orbital Rotation angle TolX            ....  1.000e-05
 DIIS Error             TolErr          ....  5.000e-07

------------------------------
INITIAL GUESS: MODEL POTENTIAL
------------------------------
Loading Hartree-Fock densities                     ... done
Calculating cut-offs                               ... done
Initializing the effective Hamiltonian             ... done
Setting up the integral package (SHARK)            ... done
Starting the Coulomb interaction                   ... done (   0.0 sec)
Making the grid                                    ... done (   0.1 sec)
Mapping shells                                     ... done
Starting the XC term evaluation                    ... done (   0.1 sec)
  promolecular density results
     # of electrons  =     55.998066251
     EX              =    -48.671407912
     EC              =     -1.937000431
     EX+EC           =    -50.608408342
Transforming the Hamiltonian                       ... done (   0.0 sec)
Diagonalizing the Hamiltonian                      ... done (   0.0 sec)
Back transforming the eigenvectors                 ... done (   0.0 sec)
Now organizing SCF variables                       ... done
                      ------------------
                      INITIAL GUESS DONE (   0.3 sec)
                      ------------------
             **** ENERGY FILE WAS UPDATED (/kaggle/working/Ser-2/Ser_InterFrag.en.tmp) ****
Finished Guess after   0.5 sec
Maximum memory used throughout the entire GUESS-calculation: 9.1 MB


           ************************************************************
           *        Program running with 2 parallel MPI-processes     *
           *              working on a common directory               *
           ************************************************************

-------------------------------------------------------------------------------------------
                                      ORCA LEAN-SCF
                              memory conserving SCF solver
-------------------------------------------------------------------------------------------

----------------------------------------D-I-I-S--------------------------------------------
Iteration    Energy (Eh)           Delta-E    RMSDP     MaxDP     DIISErr   Damp  Time(sec)
-------------------------------------------------------------------------------------------
               ***  Starting incremental Fock matrix formation  ***
    1    -398.4591398001791163     0.00e+00  6.19e-03  9.06e-02  2.67e-01  0.700   1.9
    2    -398.5999894258515610    -1.41e-01  3.85e-03  5.07e-02  1.12e-01  0.700   1.0
                               ***Turning on AO-DIIS***
    3    -398.6482208101838864    -4.82e-02  1.39e-03  1.56e-02  3.49e-02  0.700   1.0
    4    -398.6789202509488064    -3.07e-02  1.98e-03  2.35e-02  1.44e-02  0.000   0.9
    5    -398.7483566721178363    -6.94e-02  5.09e-04  6.09e-03  6.52e-03  0.000   0.9
                              *** Initializing SOSCF ***
---------------------------------------S-O-S-C-F--------------------------------------
Iteration    Energy (Eh)           Delta-E    RMSDP     MaxDP     MaxGrad    Time(sec)
--------------------------------------------------------------------------------------
    6    -398.7487013221778511    -3.45e-04  1.48e-04  1.49e-03  1.79e-03     0.9
               *** Restarting incremental Fock matrix formation ***
    7    -398.7486897718786736     1.16e-05  1.20e-04  1.54e-03  4.09e-04     1.7
    8    -398.7486869129691627     2.86e-06  5.38e-05  1.01e-03  9.29e-04     1.3
    9    -398.7486930922946726    -6.18e-06  3.22e-05  3.95e-04  1.40e-04     1.3
   10    -398.7486928450820756     2.47e-07  1.78e-05  2.23e-04  9.06e-05     1.3
   11    -398.7486934194575383    -5.74e-07  3.88e-06  6.32e-05  1.14e-05     1.2
   12    -398.7486934181128504     1.34e-09  2.16e-06  3.75e-05  1.59e-05     1.0
                 **** Energy Check signals convergence ****

               *****************************************************
               *                     SUCCESS                       *
               *           SCF CONVERGED AFTER  12 CYCLES          *
               *****************************************************

Recomputing exchange energy using gridx3       ... done (    2.779 sec)
Old exchange energy                            :     -9.878330858 Eh
New exchange energy                            :     -9.878355677 Eh
Exchange energy change after final integration :     -0.000024819 Eh
Total energy after final integration           :   -398.748718246 Eh
             **** ENERGY FILE WAS UPDATED (/kaggle/working/Ser-2/Ser_InterFrag.en.tmp) ****

----------------
TOTAL SCF ENERGY
----------------

Total Energy       :       -398.74871824644219 Eh          -10850.50425 eV

Components:
Nuclear Repulsion  :        325.03672684510190 Eh            8844.69899 eV
Electronic Energy  :       -723.78542027221192 Eh          -19695.20257 eV
One Electron Energy:      -1189.57170717066742 Eh          -32369.89181 eV
Two Electron Energy:        465.78628689845544 Eh           12674.68924 eV

Virial components:
Potential Energy   :       -795.06884928081990 Eh          -21634.92329 eV
Kinetic Energy     :        396.32013103437777 Eh           10784.41903 eV
Virial Ratio       :          2.00612784217074

DFT components:
N(Alpha)           :       28.000002076487 electrons
N(Beta)            :       28.000002076487 electrons
N(Total)           :       56.000004152974 electrons
E(X)               :      -39.285602671667 Eh       
E(C)               :       -2.285125758169 Eh       
E(XC)              :      -41.570728429836 Eh       

---------------
SCF CONVERGENCE
---------------

  Last Energy change         ...   -1.3447e-09  Tolerance :   1.0000e-08
  Last MAX-Density change    ...    3.7548e-05  Tolerance :   1.0000e-07
  Last RMS-Density change    ...    2.1627e-06  Tolerance :   5.0000e-09
  Last DIIS Error            ...    1.7908e-03  Tolerance :   5.0000e-07
  Last Orbital Gradient      ...    1.5904e-05  Tolerance :   1.0000e-05
  Last Orbital Rotation      ...    1.0042e-05  Tolerance :   1.0000e-05


----------------
ORBITAL ENERGIES
----------------

  NO   OCC          E(Eh)            E(eV) 
   0   2.0000     -19.195673      -522.3408 
   1   2.0000     -19.143860      -520.9309 
   2   2.0000     -19.135038      -520.6909 
   3   2.0000     -14.320097      -389.6696 
   4   2.0000     -10.312741      -280.6240 
   5   2.0000     -10.231516      -278.4137 
   6   2.0000     -10.224585      -278.2251 
   7   2.0000      -1.105066       -30.0704 
   8   2.0000      -1.019810       -27.7505 
   9   2.0000      -1.011230       -27.5170 
  10   2.0000      -0.896120       -24.3847 
  11   2.0000      -0.739833       -20.1319 
  12   2.0000      -0.666084       -18.1251 
  13   2.0000      -0.590415       -16.0660 
  14   2.0000      -0.526136       -14.3169 
  15   2.0000      -0.508478       -13.8364 
  16   2.0000      -0.480621       -13.0784 
  17   2.0000      -0.460930       -12.5426 
  18   2.0000      -0.458385       -12.4733 
  19   2.0000      -0.436569       -11.8796 
  20   2.0000      -0.407395       -11.0858 
  21   2.0000      -0.390065       -10.6142 
  22   2.0000      -0.382565       -10.4101 
  23   2.0000      -0.331124        -9.0103 
  24   2.0000      -0.319183        -8.6854 
  25   2.0000      -0.279440        -7.6039 
  26   2.0000      -0.273667        -7.4469 
  27   2.0000      -0.249949        -6.8014 
  28   0.0000       0.004044         0.1100 
  29   0.0000       0.071874         1.9558 
  30   0.0000       0.083190         2.2637 
  31   0.0000       0.088538         2.4092 
  32   0.0000       0.126072         3.4306 
  33   0.0000       0.154850         4.2137 
  34   0.0000       0.176506         4.8030 
  35   0.0000       0.184742         5.0271 
  36   0.0000       0.219591         5.9754 
  37   0.0000       0.225326         6.1314 
  38   0.0000       0.243871         6.6361 
  39   0.0000       0.260421         7.0864 
  40   0.0000       0.327145         8.9021 
  41   0.0000       0.374603        10.1935 
  42   0.0000       0.529779        14.4160 
  43   0.0000       0.539960        14.6931 
  44   0.0000       0.552438        15.0326 
  45   0.0000       0.576355        15.6834 
  46   0.0000       0.604938        16.4612 
  47   0.0000       0.622445        16.9376 
  48   0.0000       0.660120        17.9628 
  49   0.0000       0.697558        18.9815 
  50   0.0000       0.709267        19.3001 
  51   0.0000       0.725726        19.7480 
  52   0.0000       0.749213        20.3871 
  53   0.0000       0.768840        20.9212 
  54   0.0000       0.783728        21.3263 
  55   0.0000       0.792003        21.5515 
  56   0.0000       0.840143        22.8614 
  57   0.0000       0.853316        23.2199 
  58   0.0000       0.860994        23.4288 
  59   0.0000       0.887496        24.1500 
  60   0.0000       0.912799        24.8385 
  61   0.0000       0.934265        25.4226 
  62   0.0000       0.938644        25.5418 
  63   0.0000       0.953419        25.9439 
  64   0.0000       0.989917        26.9370 
  65   0.0000       1.027328        27.9550 
  66   0.0000       1.036759        28.2116 
  67   0.0000       1.083771        29.4909 
  68   0.0000       1.096687        29.8424 
  69   0.0000       1.127530        30.6817 
  70   0.0000       1.176242        32.0072 
  71   0.0000       1.243524        33.8380 
  72   0.0000       1.310156        35.6512 
  73   0.0000       1.366525        37.1850 
  74   0.0000       1.410586        38.3840 
  75   0.0000       1.426801        38.8252 
  76   0.0000       1.458961        39.7003 
  77   0.0000       1.508142        41.0386 
  78   0.0000       1.531158        41.6649 
  79   0.0000       1.591006        43.2935 
  80   0.0000       1.611089        43.8400 
  81   0.0000       1.633073        44.4382 
  82   0.0000       1.685276        45.8587 
  83   0.0000       1.750608        47.6365 
  84   0.0000       1.762159        47.9508 
  85   0.0000       1.786433        48.6113 
  86   0.0000       1.804224        49.0954 
  87   0.0000       1.841468        50.1089 
  88   0.0000       1.862571        50.6831 
  89   0.0000       1.873622        50.9838 
  90   0.0000       1.938091        52.7381 
  91   0.0000       1.966110        53.5006 
  92   0.0000       1.986260        54.0489 
  93   0.0000       2.018539        54.9272 
  94   0.0000       2.041226        55.5446 
  95   0.0000       2.064129        56.1678 
  96   0.0000       2.114144        57.5288 
  97   0.0000       2.133242        58.0485 
  98   0.0000       2.188702        59.5576 
  99   0.0000       2.246523        61.1310 
 100   0.0000       2.271838        61.8199 
 101   0.0000       2.287981        62.2591 
 102   0.0000       2.313126        62.9433 
 103   0.0000       2.335551        63.5536 
 104   0.0000       2.379246        64.7426 
 105   0.0000       2.384351        64.8815 
 106   0.0000       2.447293        66.5942 
 107   0.0000       2.475600        67.3645 
 108   0.0000       2.495051        67.8938 
 109   0.0000       2.539222        69.0957 
 110   0.0000       2.583422        70.2985 
 111   0.0000       2.610187        71.0268 
 112   0.0000       2.643883        71.9437 
 113   0.0000       2.675667        72.8086 
 114   0.0000       2.686251        73.0966 
 115   0.0000       2.715300        73.8871 
 116   0.0000       2.747567        74.7651 
 117   0.0000       2.781891        75.6991 
 118   0.0000       2.844135        77.3928 
 119   0.0000       2.865233        77.9669 
 120   0.0000       2.888716        78.6060 
 121   0.0000       2.927687        79.6664 
 122   0.0000       2.972360        80.8820 
 123   0.0000       3.008532        81.8663 
 124   0.0000       3.063787        83.3699 
 125   0.0000       3.167669        86.1967 
 126   0.0000       3.256551        88.6153 
 127   0.0000       3.318094        90.2899 
 128   0.0000       3.358146        91.3798 
 129   0.0000       3.422600        93.1337 
 130   0.0000       3.464182        94.2652 
 131   0.0000       3.524219        95.8989 
 132   0.0000       3.565653        97.0263 

                    ********************************
                    * MULLIKEN POPULATION ANALYSIS *
                    ********************************

-----------------------
MULLIKEN ATOMIC CHARGES
-----------------------
   0 O :   -0.533722
   1 O :   -0.470033
   2 O :   -0.443806
   3 N :   -0.559904
   4 C :   -0.061284
   5 C :    0.073506
   6 C :    0.536471
   7 H :    0.109112
   8 H :    0.105796
   9 H :    0.117821
  10 H :    0.251238
  11 H :    0.241800
  12 H :    0.307865
  13 H :    0.325141
Sum of atomic charges:    0.0000000

--------------------------------
MULLIKEN REDUCED ORBITAL CHARGES
--------------------------------
  0 O s       :     3.840022  s :     3.840022
      pz      :     1.434111  p :     4.670814
      px      :     1.859336
      py      :     1.377366
      dz2     :     0.009031  d :     0.022886
      dxz     :     0.001735
      dyz     :     0.003644
      dx2y2   :     0.004836
      dxy     :     0.003640

  1 O s       :     3.821144  s :     3.821144
      pz      :     1.661851  p :     4.625786
      px      :     1.611431
      py      :     1.352504
      dz2     :     0.004367  d :     0.023103
      dxz     :     0.004455
      dyz     :     0.007232
      dx2y2   :     0.002477
      dxy     :     0.004572

  2 O s       :     3.857303  s :     3.857303
      pz      :     1.382991  p :     4.558870
      px      :     1.479418
      py      :     1.696461
      dz2     :     0.009334  d :     0.027633
      dxz     :     0.007516
      dyz     :     0.004909
      dx2y2   :     0.002948
      dxy     :     0.002926

  3 N s       :     3.603729  s :     3.603729
      pz      :     1.179586  p :     3.925988
      px      :     1.462340
      py      :     1.284062
      dz2     :     0.005814  d :     0.030187
      dxz     :     0.009452
      dyz     :     0.002447
      dx2y2   :     0.009565
      dxy     :     0.002908

  4 C s       :     3.199086  s :     3.199086
      pz      :     1.031205  p :     2.805591
      px      :     0.942465
      py      :     0.831921
      dz2     :     0.013200  d :     0.056608
      dxz     :     0.006576
      dyz     :     0.007796
      dx2y2   :     0.013041
      dxy     :     0.015995

  5 C s       :     3.158591  s :     3.158591
      pz      :     1.046270  p :     2.705355
      px      :     0.941013
      py      :     0.718071
      dz2     :     0.012968  d :     0.062549
      dxz     :     0.006880
      dyz     :     0.009175
      dx2y2   :     0.015311
      dxy     :     0.018216

  6 C s       :     2.986966  s :     2.986966
      pz      :     0.747861  p :     2.354837
      px      :     0.834256
      py      :     0.772720
      dz2     :     0.026826  d :     0.121726
      dxz     :     0.020992
      dyz     :     0.035156
      dx2y2   :     0.019578
      dxy     :     0.019173

  7 H s       :     0.879958  s :     0.879958
      pz      :     0.006894  p :     0.010930
      px      :     0.002291
      py      :     0.001745

  8 H s       :     0.883301  s :     0.883301
      pz      :     0.002713  p :     0.010903
      px      :     0.004466
      py      :     0.003724

  9 H s       :     0.871452  s :     0.871452
      pz      :     0.006809  p :     0.010727
      px      :     0.002318
      py      :     0.001601

 10 H s       :     0.725038  s :     0.725038
      pz      :     0.011447  p :     0.023724
      px      :     0.006921
      py      :     0.005356

 11 H s       :     0.734474  s :     0.734474
      pz      :     0.007742  p :     0.023726
      px      :     0.009958
      py      :     0.006025

 12 H s       :     0.653547  s :     0.653547
      pz      :     0.019761  p :     0.038589
      px      :     0.010752
      py      :     0.008076

 13 H s       :     0.637359  s :     0.637359
      pz      :     0.009809  p :     0.037500
      px      :     0.015166
      py      :     0.012524


------------------------
MULLIKEN OVERLAP CHARGES
------------------------
B(  0-O ,  4-C ) :  -0.0989 B(  0-O ,  5-C ) :   0.5416 B(  0-O ,  8-H ) :  -0.0677 
B(  0-O ,  9-H ) :  -0.0675 B(  0-O , 12-H ) :   0.5872 B(  1-O ,  2-O ) :  -0.1658 
B(  1-O ,  4-C ) :  -0.1424 B(  1-O ,  6-C ) :   0.5309 B(  1-O , 13-H ) :   0.5427 
B(  2-O ,  4-C ) :  -0.1550 B(  2-O ,  6-C ) :   1.2252 B(  3-N ,  4-C ) :   0.6324 
B(  3-N ,  5-C ) :  -0.0815 B(  3-N ,  6-C ) :  -0.0948 B(  3-N ,  7-H ) :  -0.0716 
B(  3-N , 10-H ) :   0.6824 B(  3-N , 11-H ) :   0.6812 B(  4-C ,  5-C ) :   0.6691 
B(  4-C ,  6-C ) :   0.5465 B(  4-C ,  7-H ) :   0.7210 B(  4-C ,  8-H ) :  -0.1041 
B(  4-C ,  9-H ) :  -0.0815 B(  4-C , 10-H ) :  -0.0936 B(  4-C , 11-H ) :  -0.0778 
B(  5-C ,  6-C ) :  -0.0949 B(  5-C ,  7-H ) :  -0.0606 B(  5-C ,  8-H ) :   0.7570 
B(  5-C ,  9-H ) :   0.7630 B(  5-C , 12-H ) :  -0.0814 B(  6-C ,  7-H ) :  -0.0960 
B(  8-H ,  9-H ) :  -0.0785 B( 10-H , 11-H ) :  -0.0640 


                     *******************************
                     * LOEWDIN POPULATION ANALYSIS *
                     *******************************

----------------------
LOEWDIN ATOMIC CHARGES
----------------------
   0 O :   -0.259324
   1 O :   -0.151517
   2 O :   -0.246536
   3 N :   -0.249041
   4 C :   -0.064413
   5 C :    0.010715
   6 C :    0.135128
   7 H :    0.073889
   8 H :    0.060875
   9 H :    0.074391
  10 H :    0.131640
  11 H :    0.129427
  12 H :    0.166664
  13 H :    0.188103

-------------------------------
LOEWDIN REDUCED ORBITAL CHARGES
-------------------------------
  0 O s       :     3.504468  s :     3.504468
      pz      :     1.458679  p :     4.709714
      px      :     1.831256
      py      :     1.419779
      dz2     :     0.016526  d :     0.045142
      dxz     :     0.002081
      dyz     :     0.008426
      dx2y2   :     0.010116
      dxy     :     0.007992

  1 O s       :     3.476088  s :     3.476088
      pz      :     1.657930  p :     4.626051
      px      :     1.591557
      py      :     1.376564
      dz2     :     0.007292  d :     0.049378
      dxz     :     0.006379
      dyz     :     0.016771
      dx2y2   :     0.007493
      dxy     :     0.011443

  2 O s       :     3.563123  s :     3.563123
      pz      :     1.447902  p :     4.628351
      px      :     1.499409
      py      :     1.681041
      dz2     :     0.015856  d :     0.055061
      dxz     :     0.019460
      dyz     :     0.009177
      dx2y2   :     0.005678
      dxy     :     0.004890

  3 N s       :     3.208941  s :     3.208941
      pz      :     1.195701  p :     3.982056
      px      :     1.462005
      py      :     1.324351
      dz2     :     0.012500  d :     0.058044
      dxz     :     0.015202
      dyz     :     0.006604
      dx2y2   :     0.017145
      dxy     :     0.006593

  4 C s       :     2.886764  s :     2.886764
      pz      :     1.068391  p :     3.050067
      px      :     1.029318
      py      :     0.952358
      dz2     :     0.028165  d :     0.127581
      dxz     :     0.015641
      dyz     :     0.015590
      dx2y2   :     0.029884
      dxy     :     0.038301

  5 C s       :     2.895858  s :     2.895858
      pz      :     1.084065  p :     2.956909
      px      :     1.018374
      py      :     0.854470
      dz2     :     0.026376  d :     0.136518
      dxz     :     0.016187
      dyz     :     0.019008
      dx2y2   :     0.035624
      dxy     :     0.039323

  6 C s       :     2.860312  s :     2.860312
      pz      :     0.915066  p :     2.718538
      px      :     0.914227
      py      :     0.889245
      dz2     :     0.059690  d :     0.286022
      dxz     :     0.049938
      dyz     :     0.087697
      dx2y2   :     0.045344
      dxy     :     0.043352

  7 H s       :     0.886723  s :     0.886723
      pz      :     0.025476  p :     0.039387
      px      :     0.008104
      py      :     0.005807

  8 H s       :     0.900210  s :     0.900210
      pz      :     0.008671  p :     0.038915
      px      :     0.016697
      py      :     0.013548

  9 H s       :     0.887743  s :     0.887743
      pz      :     0.026024  p :     0.037867
      px      :     0.006690
      py      :     0.005153

 10 H s       :     0.789888  s :     0.789888
      pz      :     0.041086  p :     0.078472
      px      :     0.021367
      py      :     0.016019

 11 H s       :     0.793166  s :     0.793166
      pz      :     0.023709  p :     0.077407
      px      :     0.035840
      py      :     0.017858

 12 H s       :     0.716723  s :     0.716723
      pz      :     0.063142  p :     0.116614
      px      :     0.031188
      py      :     0.022284

 13 H s       :     0.698237  s :     0.698237
      pz      :     0.029905  p :     0.113660
      px      :     0.046882
      py      :     0.036873


---------------------------------
LOEWDIN BOND ORDERS (THRESH 0.050000)
---------------------------------
B(  0-O ,  4-C ) :   0.0693 B(  0-O ,  5-C ) :   1.2058 B(  0-O , 12-H ) :   1.0335 
B(  1-O ,  2-O ) :   0.2034 B(  1-O ,  4-C ) :   0.0634 B(  1-O ,  6-C ) :   1.4008 
B(  1-O , 13-H ) :   0.9839 B(  2-O ,  4-C ) :   0.0856 B(  2-O ,  6-C ) :   2.2008 
B(  3-N ,  4-C ) :   1.1592 B(  3-N ,  5-C ) :   0.0608 B(  3-N ,  6-C ) :   0.0756 
B(  3-N , 10-H ) :   0.9801 B(  3-N , 11-H ) :   0.9868 B(  4-C ,  5-C ) :   1.0062 
B(  4-C ,  6-C ) :   0.9742 B(  4-C ,  7-H ) :   0.9046 B(  5-C ,  6-C ) :   0.0547 
B(  5-C ,  8-H ) :   0.9307 B(  5-C ,  9-H ) :   0.9314 B(  6-C , 13-H ) :   0.0572 


------------------------------------------
LOEWDIN REDUCED ORBITAL POPULATIONS PER MO
-------------------------------------------
THRESHOLD FOR PRINTING IS 0.1%%
                      0         1         2         3         4         5   
                 -19.19567 -19.14386 -19.13504 -14.32010 -10.31274 -10.23152
                   2.00000   2.00000   2.00000   2.00000   2.00000   2.00000
                  --------  --------  --------  --------  --------  --------
 0 O  s               0.0      99.9       0.0       0.0       0.0       0.0
 0 O  py              0.0       0.0       0.0       0.0       0.0       0.1
 1 O  s              99.9       0.0       0.0       0.0       0.0       0.0
 1 O  py              0.0       0.0       0.0       0.0       0.1       0.0
 2 O  s               0.0       0.0      99.8       0.0       0.1       0.0
 2 O  pz              0.0       0.0       0.0       0.0       0.2       0.0
 2 O  px              0.0       0.0       0.0       0.0       0.1       0.0
 2 O  dxz             0.0       0.0       0.0       0.0       0.1       0.0
 3 N  s               0.0       0.0       0.0      99.7       0.0       0.0
 5 C  s               0.0       0.0       0.0       0.0       0.0      99.5
 6 C  s               0.0       0.0       0.0       0.0      99.0       0.0

                      6         7         8         9        10        11   
                 -10.22458  -1.10507  -1.01981  -1.01123  -0.89612  -0.73983
                   2.00000   2.00000   2.00000   2.00000   2.00000   2.00000
                  --------  --------  --------  --------  --------  --------
 0 O  s               0.0       0.1      57.8       0.6       0.9       3.1
 0 O  pz              0.0       0.0       1.1       0.0       0.0       0.5
 0 O  px              0.0       0.0       0.0       0.0       0.0       0.6
 0 O  py              0.0       0.0       1.3       0.0       0.1       2.4
 1 O  s               0.0      41.5       0.6      18.2       0.0       0.5
 1 O  pz              0.0       1.9       0.0       0.2       0.0       0.0
 1 O  px              0.0       0.3       0.0       0.1       0.1       1.2
 1 O  py              0.0       0.8       0.0       0.2       0.1       2.8
 2 O  s               0.0      13.7       0.1      41.0       1.2       0.8
 2 O  pz              0.0       1.9       0.0       2.1       0.0       0.1
 2 O  px              0.0       0.7       0.0       1.2       0.0       0.3
 2 O  py              0.0       0.2       0.0       0.0       0.0       0.0
 2 O  dxz             0.0       0.1       0.0       0.1       0.0       0.0
 3 N  s               0.0       0.1       0.1       0.2      40.2       9.9
 3 N  px              0.0       0.0       0.0       0.0       0.4       2.3
 3 N  py              0.1       0.1       0.1       0.1       2.2       2.4
 4 C  s              99.4       1.0       0.9       0.2      15.8      14.1
 4 C  pz              0.0       0.1       0.2       0.2       0.2       0.2
 4 C  px              0.0       0.7       0.6       0.3       0.5       1.4
 4 C  py              0.0       0.7       0.1       0.0       5.3       6.9
 4 C  dz2             0.0       0.0       0.0       0.0       0.1       0.0
 4 C  dx2y2           0.0       0.0       0.0       0.0       0.2       0.2
 4 C  dxy             0.0       0.0       0.0       0.0       0.1       0.1
 5 C  s               0.0       0.1       9.7       0.0       1.2      11.9
 5 C  pz              0.0       0.0       0.1       0.0       0.3       0.3
 5 C  px              0.1       0.1       0.4       0.1       1.6       2.5
 5 C  py              0.0       0.0       7.7       0.1       0.9       1.0
 5 C  dz2             0.0       0.0       0.2       0.0       0.0       0.0
 5 C  dx2y2           0.0       0.0       0.5       0.0       0.1       0.1
 5 C  dxy             0.0       0.0       0.2       0.0       0.0       0.0
 6 C  s               0.0      19.4       0.0       4.0       0.3       3.8
 6 C  pz              0.0       0.1       0.1      16.0       0.9       1.4
 6 C  px              0.1       1.4       0.2       3.3       1.9       5.3
 6 C  py              0.1       3.6       0.2       5.3       1.6       1.2
 6 C  dz2             0.0       0.1       0.0       0.3       0.0       0.0
 6 C  dxz             0.0       0.2       0.0       1.1       0.0       0.0
 6 C  dyz             0.0       0.7       0.0       0.1       0.0       0.0
 6 C  dx2y2           0.0       0.1       0.0       0.5       0.0       0.0
 7 H  s               0.1       0.2       0.1       0.0       2.3       3.8
 7 H  pz              0.0       0.0       0.0       0.0       0.1       0.3
 8 H  s               0.0       0.0       1.1       0.0       0.2       2.5
 8 H  px              0.0       0.0       0.0       0.0       0.0       0.1
 9 H  s               0.0       0.0       1.1       0.0       0.3       2.8
 9 H  pz              0.0       0.0       0.1       0.0       0.0       0.2
10 H  s               0.0       0.1       0.0       0.1       8.9       3.5
10 H  pz              0.0       0.0       0.0       0.0       0.9       0.4
11 H  s               0.0       0.0       0.0       0.0       9.1       4.3
11 H  pz              0.0       0.0       0.0       0.0       0.4       0.2
11 H  px              0.0       0.0       0.0       0.0       0.5       0.2
12 H  s               0.0       0.0      12.5       0.1       0.2       1.6
12 H  pz              0.0       0.0       1.9       0.0       0.0       0.3
12 H  py              0.0       0.0       0.2       0.0       0.0       0.0
13 H  s               0.0       8.3       0.1       3.2       0.0       1.3
13 H  pz              0.0       0.2       0.0       0.1       0.0       0.0
13 H  px              0.0       0.7       0.0       0.3       0.0       0.1
13 H  py              0.0       0.6       0.0       0.3       0.0       0.0

                     12        13        14        15        16        17   
                  -0.66608  -0.59042  -0.52614  -0.50848  -0.48062  -0.46093
                   2.00000   2.00000   2.00000   2.00000   2.00000   2.00000
                  --------  --------  --------  --------  --------  --------
 0 O  s               1.3       0.0       0.6       0.3       0.1       0.0
 0 O  pz              2.0       4.1       4.1      12.4       0.3       0.3
 0 O  px              0.3       0.3       1.4       1.4       0.4       7.5
 0 O  py              5.9       4.3       0.1       9.3       0.0       0.2
 0 O  dz2             0.1       0.1       0.0       0.2       0.0       0.0
 0 O  dx2y2           0.1       0.1       0.0       0.0       0.0       0.0
 1 O  s               0.7       0.3       0.1       0.0       5.0       1.1
 1 O  pz              0.1       1.3       0.5       1.1      14.8      17.0
 1 O  px              4.2       4.1       0.3       0.3      14.0       1.6
 1 O  py             13.2      19.6       7.9       0.5       0.1       0.9
 1 O  dz2             0.0       0.0       0.0       0.0       0.0       0.1
 1 O  dyz             0.2       0.3       0.1       0.0       0.0       0.0
 1 O  dx2y2           0.1       0.1       0.0       0.0       0.0       0.0
 2 O  s               1.2       0.6       1.6       0.4      12.4       0.1
 2 O  pz              0.6       0.5       0.3       0.1      22.8       2.7
 2 O  px              0.3       0.0       4.3       0.5       4.6       0.5
 2 O  py              0.0       0.4       2.3       0.2       3.2       8.4
 2 O  dz2             0.0       0.0       0.0       0.0       0.2       0.1
 2 O  dxz             0.0       0.0       0.1       0.0       0.2       0.0
 2 O  dyz             0.0       0.0       0.1       0.0       0.1       0.1
 3 N  s               0.1       1.0       0.3       0.0       0.0       0.5
 3 N  pz              0.3       1.3       6.5      18.1       2.5       0.0
 3 N  px              0.2       2.3       0.7       3.5       0.5       0.2
 3 N  py              0.1       5.0       0.1       0.2       1.9       1.4
 3 N  dxz             0.0       0.0       0.0       0.1       0.0       0.0
 3 N  dx2y2           0.0       0.1       0.0       0.0       0.0       0.0
 4 C  s               0.9       8.6       0.0       0.1       0.1       0.3
 4 C  pz              1.8       2.5      11.2      10.5       0.0       0.0
 4 C  px              8.4       0.3       6.9       2.2       0.5       8.0
 4 C  py              2.3       0.3       2.7       0.4       2.6       0.5
 4 C  dxz             0.1       0.0       0.1       0.0       0.0       0.0
 4 C  dxy             0.2       0.0       0.1       0.0       0.0       0.1
 5 C  s              16.4       2.7       0.6       0.1       0.0       0.3
 5 C  pz              0.8       4.9       5.7       0.9       0.2       1.6
 5 C  px              0.4       2.0       4.0       1.2       0.3      10.4
 5 C  py              1.7       0.3       4.1       9.3       0.1       4.8
 5 C  dxz             0.0       0.1       0.0       0.0       0.0       0.2
 5 C  dx2y2           0.0       0.1       0.0       0.2       0.0       0.0
 6 C  s               6.7       2.2       1.0       0.1       2.7       0.3
 6 C  pz              4.1       1.2       0.8       0.5       1.0       5.1
 6 C  px              2.0       0.1       5.3       0.1       3.8       3.0
 6 C  py              0.4       4.3       8.0       1.0       0.1      12.6
 6 C  dz2             0.0       0.0       0.1       0.0       0.1       0.0
 6 C  dyz             0.0       0.2       0.1       0.1       0.1       0.1
 6 C  dxy             0.0       0.1       0.0       0.0       0.1       0.0
 7 H  s               0.8       5.8       4.1       3.7       0.2       0.5
 7 H  pz              0.0       0.3       0.1       0.1       0.0       0.0
 8 H  s               5.9       0.8       5.9       1.0       0.1       6.0
 8 H  px              0.2       0.0       0.2       0.1       0.0       0.0
 8 H  py              0.1       0.0       0.1       0.0       0.0       0.1
 9 H  s               6.4       3.0       0.5       0.1       0.0       1.4
 9 H  pz              0.4       0.1       0.0       0.0       0.0       0.0
10 H  s               0.2       2.3       1.8       4.7       2.2       0.1
10 H  pz              0.0       0.2       0.0       0.1       0.0       0.0
10 H  px              0.0       0.0       0.0       0.2       0.0       0.0
11 H  s               0.0       1.2       1.0       6.5       0.0       0.1
11 H  pz              0.0       0.1       0.0       0.0       0.0       0.0
11 H  px              0.0       0.0       0.1       0.2       0.0       0.0
12 H  s               2.4       2.5       1.2       6.6       0.0       0.6
12 H  pz              0.3       0.2       0.0       0.3       0.0       0.0
13 H  s               5.2       6.7       1.9       0.2       1.9       0.1
13 H  pz              0.2       0.2       0.1       0.0       0.0       0.2
13 H  px              0.2       0.2       0.1       0.0       0.0       0.0
13 H  py              0.1       0.0       0.0       0.0       0.2       0.0

                     18        19        20        21        22        23   
                  -0.45839  -0.43657  -0.40740  -0.39006  -0.38256  -0.33112
                   2.00000   2.00000   2.00000   2.00000   2.00000   2.00000
                  --------  --------  --------  --------  --------  --------
 0 O  s               3.1       0.2       0.0       0.1       1.6       5.4
 0 O  pz             11.6       0.0       0.8       0.8       8.5      24.8
 0 O  px              0.0       0.6       1.2       8.0       1.0       0.0
 0 O  py              0.7      11.2       6.5       0.0       9.6      13.0
 0 O  dz2             0.0       0.1       0.0       0.0       0.0       0.1
 0 O  dyz             0.0       0.1       0.1       0.0       0.1       0.1
 1 O  s               0.1       0.5       2.0       2.7       0.1       0.0
 1 O  pz              0.1       0.2       0.7      25.2       1.2       0.1
 1 O  px              0.1       8.6      19.3       0.4       1.1       1.4
 1 O  py              3.8       1.4       3.1       1.2       1.0       0.5
 1 O  dxy             0.0       0.0       0.0       0.2       0.0       0.0
 2 O  s               1.6       0.0       0.9       1.6       0.8       0.0
 2 O  pz              1.6       2.3       0.6      14.4       3.6       0.3
 2 O  px              5.4       2.6      12.5       0.9       3.1       0.0
 2 O  py              0.1       0.3       0.2       0.0       1.1       1.2
 2 O  dz2             0.0       0.1       0.0       0.1       0.0       0.0
 2 O  dxz             0.1       0.0       0.1       0.0       0.0       0.0
 3 N  s               0.1       0.0       0.3       0.3       0.0       0.0
 3 N  pz              0.9      18.9       0.1       2.1       5.5       0.7
 3 N  px             13.3       0.1       3.9       0.8       0.0       0.0
 3 N  py             13.0       0.5       3.6       0.5       5.7       1.5
 3 N  dz2             0.0       0.1       0.0       0.0       0.2       0.0
 3 N  dxz             0.1       0.3       0.0       0.0       0.1       0.0
 3 N  dx2y2           0.3       0.0       0.1       0.0       0.0       0.0
 4 C  s               0.6       0.1       0.1       0.3       0.1       0.1
 4 C  pz              0.0       1.4       0.1       1.3      15.3       4.6
 4 C  px              0.1       0.6       0.6       7.9       1.4       2.5
 4 C  py             13.0       1.2       4.8       0.9       1.6       0.6
 4 C  dz2             0.0       0.0       0.1       0.0       0.7       0.2
 4 C  dxz             0.0       0.0       0.2       0.1       0.1       0.0
 4 C  dyz             0.1       0.1       0.0       0.0       0.1       0.0
 4 C  dx2y2           0.4       0.1       0.2       0.0       0.0       0.1
 4 C  dxy             0.0       0.0       0.0       0.1       0.0       0.1
 5 C  s               0.9       0.2       0.4       0.2       0.3       0.0
 5 C  pz              5.8      10.5       4.2       0.4       4.5      13.2
 5 C  px              0.9       0.7      10.2      10.4       0.1       0.1
 5 C  py              0.3       5.0       0.7       0.6       2.0       3.0
 5 C  dz2             0.0       0.1       0.2       0.0       0.3       0.3
 5 C  dxz             0.0       0.0       0.0       0.0       0.0       0.1
 5 C  dyz             0.1       0.0       0.1       0.0       0.0       0.7
 5 C  dxy             0.2       0.0       0.0       0.0       0.0       0.1
 6 C  s               0.9       0.0       0.1       0.3       0.0       0.2
 6 C  pz              1.5       2.0       4.8       2.0       1.9       0.1
 6 C  px              2.2       4.0       1.9       6.2       0.7       0.4
 6 C  py              1.2       0.7       0.4       0.1       0.3       0.2
 6 C  dz2             0.0       0.0       0.2       0.2       0.2       0.0
 6 C  dxz             0.0       0.0       0.1       0.0       0.2       0.1
 6 C  dyz             0.0       0.0       0.0       0.3       0.0       0.1
 6 C  dx2y2           0.0       0.1       0.1       0.3       0.1       0.0
 6 C  dxy             0.0       0.0       0.2       0.2       0.1       0.0
 7 H  s               0.0       1.7       0.1       0.6      15.7       3.0
 7 H  pz              0.0       0.1       0.0       0.0       0.2       0.0
 8 H  s               3.6       0.0       2.2       3.3       0.1       5.0
 8 H  px              0.1       0.0       0.0       0.0       0.0       0.1
 8 H  py              0.1       0.0       0.1       0.0       0.0       0.0
 9 H  s               0.7       8.0       6.0       0.0       3.4      10.2
 9 H  pz              0.0       0.2       0.2       0.0       0.0       0.0
10 H  s               0.1       8.3       0.1       0.9       4.5       0.3
10 H  pz              0.0       0.2       0.0       0.0       0.0       0.0
10 H  px              0.1       0.1       0.0       0.0       0.0       0.0
10 H  py              0.1       0.0       0.0       0.0       0.1       0.0
11 H  s               8.0       4.0       2.2       0.5       0.5       0.8
11 H  pz              0.2       0.0       0.0       0.0       0.0       0.0
11 H  px              0.1       0.2       0.0       0.0       0.0       0.0
12 H  s               1.7       1.2       1.0       0.0       0.2       3.7
12 H  px              0.0       0.0       0.0       0.1       0.0       0.0
12 H  py              0.0       0.1       0.1       0.0       0.2       0.3
13 H  s               0.6       0.3       1.2       2.5       0.0       0.0
13 H  pz              0.0       0.0       0.0       0.2       0.0       0.0
13 H  py              0.0       0.1       0.2       0.0       0.0       0.0

                     24        25        26        27        28        29   
                  -0.31918  -0.27944  -0.27367  -0.24995   0.00404   0.07187
                   2.00000   2.00000   2.00000   2.00000   0.00000   0.00000
                  --------  --------  --------  --------  --------  --------
 0 O  s               0.0       0.0       0.0       0.0       0.6       2.6
 0 O  pz              0.1       0.5       0.5       0.4       0.0       3.6
 0 O  px              3.1       6.1      56.4       3.2       0.0       0.0
 0 O  py              0.8       0.0       5.3       0.0       0.1       0.1
 0 O  dz2             0.0       0.0       0.0       0.0       0.0       0.2
 1 O  s               0.0       0.1       0.0       0.5       0.0       5.0
 1 O  pz             12.0       5.4       0.7       0.4       2.6       0.5
 1 O  px             20.8       1.2       0.4       0.0       4.5       3.3
 1 O  py              8.6       1.8       0.0       1.2       2.1       1.6
 1 O  dz2             0.0       0.0       0.0       0.0       0.2       0.2
 1 O  dxz             0.0       0.0       0.0       0.0       0.2       0.2
 1 O  dyz             0.0       0.0       0.0       0.0       0.1       0.2
 1 O  dx2y2           0.0       0.0       0.0       0.0       0.3       0.0
 1 O  dxy             0.0       0.0       0.0       0.1       0.3       0.4
 2 O  s               0.0       0.0       0.0       0.1       0.0       0.3
 2 O  pz             15.5       1.8       0.7       0.2       7.9       0.3
 2 O  px             21.5      12.3       0.4       3.7      10.7       0.6
 2 O  py              8.8      49.8       3.9       3.9       5.3       0.2
 2 O  dz2             0.1       0.0       0.0       0.0       0.9       0.0
 2 O  dyz             0.0       0.0       0.0       0.0       0.1       0.0
 2 O  dx2y2           0.0       0.0       0.0       0.0       0.2       0.0
 2 O  dxy             0.0       0.0       0.0       0.0       0.2       0.0
 3 N  s               0.1       0.5       0.5       6.5       0.8       0.0
 3 N  pz              0.0       0.5       0.8       1.5       0.2       0.0
 3 N  px              0.4       5.4       3.4      35.7       0.2       0.2
 3 N  py              0.2       2.1       5.7      19.7       1.6       0.6
 4 C  s               0.0       1.1       0.4       0.1       0.0       2.1
 4 C  pz              0.0       2.4       1.1       0.0       0.2       0.9
 4 C  px              0.0       0.8       4.3       3.3       0.8       0.3
 4 C  py              0.0       1.0       0.7       1.7       0.8       0.5
 4 C  dz2             0.0       0.0       0.0       0.1       0.1       0.0
 4 C  dxz             0.0       0.0       0.0       0.0       0.5       0.0
 4 C  dx2y2           0.0       0.0       0.0       0.3       1.6       0.0
 4 C  dxy             0.0       0.1       0.1       0.9       0.1       0.0
 5 C  s               0.1       0.1       0.0       0.3       1.1       0.1
 5 C  pz              0.1       0.2       0.0       0.6       0.8       0.2
 5 C  px              0.0       0.1       3.5       1.7       1.7       0.2
 5 C  py              0.1       0.1       0.6       0.1       1.3       1.5
 5 C  dxz             0.0       0.0       0.2       0.0       0.0       0.0
 5 C  dyz             0.0       0.0       0.0       0.0       0.0       0.1
 5 C  dx2y2           0.0       0.1       0.3       0.0       0.2       0.0
 5 C  dxy             0.0       0.0       1.1       0.1       0.2       0.0
 6 C  s               0.0       0.0       0.1       1.7       0.0       0.5
 6 C  pz              1.1       0.2       0.0       0.8      14.7       0.9
 6 C  px              2.0       0.1       0.0       1.8      19.9       0.9
 6 C  py              0.6       0.4       0.1       2.0       9.8       0.1
 6 C  dz2             1.5       0.1       0.1       0.1       0.5       0.1
 6 C  dxz             0.3       0.3       0.0       0.0       0.0       0.1
 6 C  dyz             0.0       1.8       0.2       0.6       0.4       0.0
 6 C  dx2y2           0.0       0.6       0.0       0.3       0.5       0.0
 6 C  dxy             0.7       0.5       0.0       0.1       0.0       0.3
 7 H  s               0.1       0.8       0.0       0.6       0.8       3.8
 7 H  pz              0.0       0.0       0.0       0.0       0.0       0.5
 7 H  px              0.0       0.0       0.1       0.1       0.1       0.1
 8 H  s               0.1       0.0       6.3       0.9       1.2       0.9
 8 H  pz              0.0       0.0       0.0       0.0       0.0       0.1
 8 H  px              0.0       0.0       0.0       0.0       0.3       0.1
 9 H  s               0.0       0.3       0.0       0.0       0.0       0.3
10 H  s               0.0       0.3       0.2       0.8       0.1       0.0
10 H  px              0.0       0.0       0.0       0.4       0.0       0.0
10 H  py              0.0       0.0       0.1       0.3       0.1       0.1
11 H  s               0.0       0.2       0.1       1.1       1.1       0.4
11 H  pz              0.0       0.0       0.0       0.1       0.0       0.0
11 H  px              0.0       0.0       0.0       0.2       0.1       0.0
11 H  py              0.0       0.0       0.1       0.3       0.0       0.0
12 H  s               0.0       0.0       0.0       0.0       1.1      18.8
12 H  pz              0.0       0.0       0.0       0.0       0.1       2.8
12 H  px              0.0       0.1       1.0       0.1       0.0       0.1
12 H  py              0.0       0.0       0.1       0.0       0.0       0.1
13 H  s               0.0       0.4       0.1       0.8       0.0      35.9
13 H  pz              0.2       0.0       0.0       0.0       0.1       0.9
13 H  px              0.3       0.0       0.0       0.0       0.2       2.7
13 H  py              0.1       0.1       0.0       0.0       0.1       2.3

                     30        31        32        33        34        35   
                   0.08319   0.08854   0.12607   0.15485   0.17651   0.18474
[...]
13 H  s               0.4
13 H  px              0.4
13 H  py              0.3


                      *****************************
                      * MAYER POPULATION ANALYSIS *
                      *****************************

  NA   - Mulliken gross atomic population
  ZA   - Total nuclear charge
  QA   - Mulliken gross atomic charge
  VA   - Mayer's total valence
  BVA  - Mayer's bonded valence
  FA   - Mayer's free valence

  ATOM       NA         ZA         QA         VA         BVA        FA
  0 O      8.5337     8.0000    -0.5337     1.9001     1.9001     0.0000
  1 O      8.4700     8.0000    -0.4700     2.0240     2.0240     0.0000
  2 O      8.4438     8.0000    -0.4438     2.0862     2.0862     0.0000
  3 N      7.5599     7.0000    -0.5599     2.8821     2.8821    -0.0000
  4 C      6.0613     6.0000    -0.0613     3.8513     3.8513     0.0000
  5 C      5.9265     6.0000     0.0735     3.8240     3.8240    -0.0000
  6 C      5.4635     6.0000     0.5365     3.9305     3.9305     0.0000
  7 H      0.8909     1.0000     0.1091     0.9532     0.9532     0.0000
  8 H      0.8942     1.0000     0.1058     0.9494     0.9494    -0.0000
  9 H      0.8822     1.0000     0.1178     0.9555     0.9555    -0.0000
 10 H      0.7488     1.0000     0.2512     0.9292     0.9292    -0.0000
 11 H      0.7582     1.0000     0.2418     0.9180     0.9180     0.0000
 12 H      0.6921     1.0000     0.3079     0.9009     0.9009    -0.0000
 13 H      0.6749     1.0000     0.3251     0.9113     0.9113     0.0000

  Mayer bond orders larger than 0.100000
B(  0-O ,  5-C ) :   0.9602 B(  0-O , 12-H ) :   0.8807 B(  1-O ,  6-C ) :   1.0852 
B(  1-O , 13-H ) :   0.8512 B(  2-O ,  6-C ) :   1.9150 B(  3-N ,  4-C ) :   1.0361 
B(  3-N , 10-H ) :   0.8959 B(  3-N , 11-H ) :   0.9114 B(  4-C ,  5-C ) :   0.9645 
B(  4-C ,  6-C ) :   0.8950 B(  4-C ,  7-H ) :   0.9338 B(  5-C ,  8-H ) :   0.9427 
B(  5-C ,  9-H ) :   0.9463 

-------
TIMINGS
-------

Total SCF time: 0 days 0 hours 0 min 18 sec 

Total time                  ....      18.672 sec
Sum of individual times     ....      17.692 sec  ( 94.8%)

SCF preparation             ....       0.323 sec  (  1.7%)
Fock matrix formation       ....      17.132 sec  ( 91.8%)
  Startup                   ....       0.003 sec  (  0.0% of F)
  Split-RI-J                ....       1.337 sec  (  7.8% of F)
  Chain of spheres X        ....      13.209 sec  ( 77.1% of F)
  XC integration            ....       3.483 sec  ( 20.3% of F)
    XC Preparation          ....       0.000 sec  (  0.0% of XC)
    Basis function eval.    ....       1.361 sec  ( 39.1% of XC)
    Density eval.           ....       0.613 sec  ( 17.6% of XC)
    XC-Functional eval.     ....       0.248 sec  (  7.1% of XC)
    XC-Potential eval.      ....       0.950 sec  ( 27.3% of XC)
Diagonalization             ....       0.000 sec  (  0.0%)
Density matrix formation    ....       0.020 sec  (  0.1%)
Total Energy calculation    ....       0.010 sec  (  0.1%)
Population analysis         ....       0.087 sec  (  0.5%)
Orbital Transformation      ....       0.012 sec  (  0.1%)
Orbital Orthonormalization  ....       0.000 sec  (  0.0%)
DIIS solution               ....       0.062 sec  (  0.3%)
  MO trafo                  ....       0.000 sec  (  0.0 % of DIIS)
  Orb grad                  ....       0.000 sec  (  0.0 % of DIIS)
  Energy W gradient         ....       0.000 sec  (  0.0 % of DIIS)
  DIIS error                ....       0.013 sec  ( 20.5 % of DIIS)
  DIIS work                 ....       0.040 sec  ( 63.8 % of DIIS)
  Form Q                    ....       0.000 sec  (  0.0 % of DIIS)
  Form QpQm                 ....       0.000 sec  (  0.0 % of DIIS)
  Exp/Cayley                ....       0.000 sec  (  0.0 % of DIIS)
  Orb update                ....       0.000 sec  (  0.0 % of DIIS)
  Wake-sleep                ....       0.003 sec  (  5.2 % of DIIS)
SOSCF solution              ....       0.045 sec  (  0.2%)
  MO trafo                  ....       0.014 sec  ( 31.9 % of SOSCF)
  Orb grad                  ....       0.002 sec  (  4.9 % of SOSCF)
  Rot update                ....       0.007 sec  ( 15.7 % of SOSCF)
  Step                      ....       0.018 sec  ( 39.7 % of SOSCF)
Finished LeanSCF after  18.7 sec

Maximum memory used throughout the entire LEANSCF-calculation: 13.8 MB


-------------------------------------------------------------------------------
                          DFT DISPERSION CORRECTION                            
                                                                               
                              DFTD3 V3.1  Rev 1                                
                          USING Becke-Johnson damping                          
-------------------------------------------------------------------------------
The B3LYP functional is recognized
Active option DFTDOPT                   ...         4   

molecular C6(AA) [au] = 1571.412920 


            DFT-D V3
 parameters
 s6 scaling factor         :     1.0000 
 a1 scaling factor         :     0.3981 
 s8 scaling factor         :     1.9889 
 a2 scaling factor         :     4.4211 
 ad hoc parameters k1-k3   :    16.0000     1.3333    -4.0000 

 Edisp/kcal,au: -11.572940109164  -0.018442652028 
 E6   /kcal   :  -5.656099813 
 E8   /kcal   :  -5.916840296 
 % E8         :  51.126509252 

-------------------------   ----------------
Dispersion correction           -0.018442652
-------------------------   ----------------


-------------------------   --------------------
FINAL SINGLE POINT ENERGY      -398.767160898471
-------------------------   --------------------



           ************************************************************
           *        Program running with 2 parallel MPI-processes     *
           *              working on a common directory               *
           ************************************************************
------------------------------------------------------------------------------
                            ORCA SCF RESPONSE CALCULATION
------------------------------------------------------------------------------

GBWName                                 ... /kaggle/working/Ser-2/Ser_InterFrag.gbw
Number of atoms                         ...     14
Number of basis functions               ...    133
Max core memory                         ...   3000 MB

Electric field perturbation             ... YES
Quadrupolar field perturbation          ...  NO
Magnetic field perturbation (no GIAO)   ...  NO
Magnetic field perturbation (with GIAO) ...  NO
Linear momentum (velocity) perturbation ...  NO
Spin-orbit coupling perturbation        ...  NO
Choice of electric origin               ... Center of mass
Position of electric origin             ...     0.024727     0.089072    -0.016761
Choice of magnetic origin               ... GIAO
Position of magnetic origin             ...     0.000000     0.000000     0.000000
Nuclear geometric perturbations         ...  NO (  42 perturbations)
Nucleus-orbit perturbations             ...  NO (   0 perturbations)
Spin-dipole/Fermi contact perturbations ...  NO (   0 perturbations)

Total number of real perturbations      ...      3
Total number of imaginary perturbations ...      0
Total number of triplet perturbations   ...      0
Total number of SOC perturbations       ...      0

Using XC Grid                  ... (/kaggle/working/Ser-2/Ser_InterFrag.grid_cpscf.tmp) 
Recalculating density on grid  ... (/kaggle/working/Ser-2/Ser_InterFrag.grho_cpscf0.tmp) done
Calculating the xc-kernel      ... (/kaggle/working/Ser-2/Ser_InterFrag.fxc_cpscf0.tmp) done

                                **********************
                                * REAL PERTURBATIONS *
                                **********************



-------------------
SHARK CP-SCF DRIVER
-------------------

Dimension of the orbital basis          ...    133
Dimension of the CPSCF-problem          ...   2940
Number of operators                     ...      1
Max. number of iterations               ...    128
Convergence Tolerance                   ... 1.0e-04
Number of perturbations                 ...      3
Perturbation type                       ... REAL

----------------------------
POPLE LINEAR EQUATION SOLVER
----------------------------

  ITERATION   0:   ||err||_max =   9.6566e+00 (   0.7 sec   0/  3 done)
  ITERATION   1:   ||err||_max =   7.1946e-01 (   0.7 sec   0/  3 done)
  ITERATION   2:   ||err||_max =   2.6316e-01 (   0.7 sec   0/  3 done)
  ITERATION   3:   ||err||_max =   5.0129e-02 (   0.8 sec   0/  3 done)
  ITERATION   4:   ||err||_max =   1.6579e-02 (   0.7 sec   0/  3 done)
  ITERATION   5:   ||err||_max =   4.0798e-03 (   0.7 sec   0/  3 done)
  ITERATION   6:   ||err||_max =   9.3880e-04 (   0.7 sec   0/  3 done)
  ITERATION   7:   ||err||_max =   3.1830e-04 (   0.7 sec   0/  3 done)
  ITERATION   8:   ||err||_max =   9.7844e-05 (   0.7 sec   3/  3 done)

CP-SCF equations solved in   6.4 sec
Response densities calculated in   0.0 sec

Maximum memory used throughout the entire SCFRESP-calculation: 14.6 MB


           ************************************************************
           *        Program running with 2 parallel MPI-processes     *
           *              working on a common directory               *
           ************************************************************

------------------------------------------------------------------------------
                              ORCA PROPERTY CALCULATIONS
------------------------------------------------------------------------------

GBWName                                 ... /kaggle/working/Ser-2/Ser_InterFrag.gbw
Number of atoms                         ...     14
Number of basis functions               ...    133
Max core memory                         ...   3000 MB

Electric properties:
Dipole moment                           ... YES
Quadrupole moment                       ...  NO
Static polarizability (Dipole/Dipole)   ... YES
Static polarizability (Dipole/Quad.)    ...  NO
Static polarizability (Quad./Quad.)     ...  NO
Static polarizability (Velocity)        ...  NO
Static hyperpolarizability              ...  NO

Atomic electric properties:
Dipole moment                           ...  NO
Quadrupole moment                       ...  NO
Static polarizability                   ...  NO

Choice of electric origin               ... Center of mass
Position of electric origin             ...     0.024727     0.089072    -0.016761

General magnetic properties:
Magnetizability                         ...  NO

EPR properties:
g-Tensor (aka g-matrix)                 ...  NO
Zero-Field splitting spin-orbit         ...  NO
Zero-field splitting spin-spin          ...  NO
Hyperfine couplings                     ...  NO (   0 nuclei)
Quadrupole couplings                    ...  NO (   0 nuclei)
Contact density                         ...  NO (   0 nuclei)

NMR properties:
Chemical shifts                         ...  NO (   0 nuclei)
Spin-rotation constants                 ...  NO (   0 nuclei)
Spin-spin couplings                     ...  NO (   0 nuclei,    0 pairs)

Choice of magnetic origin               ... GIAO
Position of magnetic origin             ...     0.000000     0.000000     0.000000

Properties with geometric perturbations:
SCF Hessian                             ...  NO
IR spectrum                             ...  NO
VCD spectrum                            ...  NO
X-ray spectroscopy properties:
SCF XES/XAS/RIXS spectra                ...  NO

SCF SOC stabilization energy            ...  NO
Diagonal Born-Oppenheimer correction    ...  NO

-------------
DIPOLE MOMENT
-------------

Method             : SCF
Type of density    : Electron Density
Multiplicity       :   1
Irrep              :   0
Energy             :  -398.7487182464421949 Eh
Basis              : AO
                                X                 Y                 Z
Electronic contribution:     -2.906961160       3.223453228      -0.505252647
Nuclear contribution   :      2.741456587      -3.081833179       1.389892508
                        -----------------------------------------
Total Dipole Moment    :     -0.165504573       0.141620050       0.884639861
                        -----------------------------------------
Magnitude (a.u.)       :      0.911062943
Magnitude (Debye)      :      2.315737966



--------------------
Rotational spectrum 
--------------------
 
Rotational constants in cm-1:             0.099328             0.084101             0.057161 
Rotational constants in MHz :          2977.778273          2521.287982          1713.658207 

Dipole components along the rotational axes: 
x,y,z [a.u.] :     0.198254     0.139783     0.878175 
x,y,z [Debye]:     0.503921     0.355299     2.232144 

 

Dipole moment calculation done in   0.0 sec 


---------------------------------------------------
STATIC POLARIZABILITY TENSOR (Dipole/Dipole)
---------------------------------------------------

Method             : SCF
Type of density    : Electron Density
Type of derivative : Electric Field (Direction=X)
Multiplicity       :   1
Irrep              :   0
Basis              : AO

The raw cartesian tensor (atomic units):
      46.072327853        -1.115986082         2.978628668  
      -1.115986082        51.137823160         3.731635329  
       2.978628668         3.731635329        44.137036546  
diagonalized tensor: 
      40.656734918        47.932122772        52.758329870  

Orientation: 
      -0.506110702         0.862014173         0.027991464  
      -0.336605816        -0.227302988         0.913799692  
       0.794070829         0.453061714         0.405199459  

Isotropic polarizability :  47.11573


Polarizability tensor calculation done in   0.0 sec 

Maximum memory used throughout the entire PROP-calculation: 7.3 MB

--------------------------------
SUGGESTED CITATIONS FOR THIS RUN
--------------------------------

Below you find a list of papers that are relevant to this ORCA run
We neither can nor want to force you to cite these papers, but we appreciate if you do
You receive ORCA, which is the product of decades of hard work by many enthusiastic individuals, for free
The only thing we kindly ask in return is that you cite our papers,
We deeply appreciate it, if you show your appreciation for ORCA by not just citing the generic ORCA reference.

Please note that relegating all ORCA citations to the supporting information does *not* help us.
SI sections are not indexed - citations you put there will not count into any citation statistics
But we need these citations in order to attract the funding resources that allow us to do what we are doing

Therefore, if you are a happy ORCA user, please consider citing a few of the papers listed below in the main body of your paper

In addition to the list printed below, the program has created the file /kaggle/working/Ser-2/Ser_InterFrag.bibtex that contains the list in bibtex format
You can import this file easily into all common literature databanks and citation aid programs

It goes without saying that in many instances, there are alternative algorithms to achieve similar
results as the ones you have gotten from ORCA. It is, of course, also the case that in some instances
ORCA just re-implements algorithms worked out by others. We are fully aware of that and we are also
fully appreciative of our colleagues work. Hence this citation list should not be read as indicating
that the listed papers, which are focused on our own work, are the only ones worth citing. It simply
meant to make it easier for users to cite ORCA specific papers. It is not a substitute for doing your
own literature research and citing the relevant literature in a scientifically appropriate manner.

List of essential papers. We consider these as the minimum necessary citations

  1. Neese, F.
     Software update: the ORCA program system, version 6.0
     WIRES Comput. Molec. Sci. 2025 15(1), e70019
     doi.org/10.1002/wcms.70019

List of papers to cite with high priority. The work reported in these papers was absolutely
necessary for this run to complete.
Our perspective: the developers of density functionals and basis sets usually get cited in chemistry papers
Good! But without the algorithms to do something with them, the functionals or basis sets would not do anything.
Hence, in our opinion, the algorithm design and method developments papers are equally worthy of getting cited

  1. Neese, F.
     An improvement of the resolution of the identity approximation for the formation of the Coulomb matrix
     J. Comp. Chem. 2003 24(14), 1740-1747
     doi.org/10.1002/jcc.10318
  2. Neese, F.; Wennmohs, F.; Hansen, A.; Becker, U.
     Efficient, approximate and parallel Hartree-Fock and hybrid DFT calculations. A 'chain-of-spheres' algorithm for the Hartree-Fock exchange
     Chem. Phys. 2009 356(1-3), 98-109
     doi.org/10.1016/j.chemphys.2008.10.036
  3. Grimme, S.; Antony, J.; Ehrlich, S.; Krieg, H.
     A consistent and accurate ab initio parametrization of density functional dispersion correction (DFT-D) for the 94 elements H-Pu
     J. Chem. Phys. 2010 132 , 154104
     doi.org/10.1063/1.3382344
  4. Grimme, S.; Ehrlich, S.; Goerigk, L.
     Effect of the damping function in dispersion corrected density functional theory
     J. Comput. Chem. 2011 32(7), 1456-1465
     doi.org/10.1002/jcc.21759
  5. Helmich-Paris, B.; de Souza, B.; Neese, F.; Izsák, R.
     An improved chain of spheres for exchange algorithm
     J. Chem. Phys. 2021 155(10), 104109
     doi.org/10.1063/5.0058766
  6. Neese, F.
     The SHARK Integral Generation and Digestion System
     J. Comp. Chem. 2022 44(3), 381
     doi.org/10.1002/jcc.26942

List of suggested additional citations. These are papers that are important in the 'surrounding' of 
of this run, or papers that preceded the highly important papers. If you like your results we are grateful for a citation.

  1. Izsak, R.; Neese, F.
     An overlap fitted chain of spheres exchange method
     J. Chem. Phys. 2011 135 , 144105
     doi.org/10.1063/1.3646921
  2. Izsak, R.; Hansen, A.; Neese, F.
     The resolution of identity and chain of spheres approximations for the LPNO-CCSD singles Fock term
     Molec. Phys. 2012 110 , 2413-2417
     doi.org/10.1080/00268976.2012.687466
  3. Neese, F.
     The ORCA program system
     WIRES Comput. Molec. Sci. 2012 2(1), 73-78
     doi.org/10.1002/wcms.81
  4. Izsak, R.; Neese, F.; Klopper, W.
     Robust fitting techniques in the chain of spheres approximation to the Fock exchange: The role of the complementary space
     J. Chem. Phys. 2013 139 , 
     doi.org/10.1063/1.4819264
  5. Neese, F.
     Software update: the ORCA program system, version 4.0
     WIRES Comput. Molec. Sci. 2018 8(1), 1-6
     doi.org/10.1002/wcms.1327
  6. Neese, F.; Wennmohs, F.; Becker, U.; Riplinger, C.
     The ORCA quantum chemistry program package
     J. Chem. Phys. 2020 152(22), 224108
     doi.org/10.1063/5.0004608
  7. Neese, F.
     Software update: The ORCA program system—Version 5.0
     WIRES Comput. Molec. Sci. 2022 12(1), e1606
     doi.org/10.1002/wcms.1606

List of optional additional citations

  1. Neese, F.
     Approximate second-order SCF convergence for spin unrestricted wavefunctions
     Chem. Phys. Lett. 2000 325(1-3), 93-98
     doi.org/10.1016/s0009-2614(00)00662-x

Timings for individual modules:

Sum of individual times          ...       28.132 sec (=   0.469 min)
Startup calculation              ...        1.413 sec (=   0.024 min)   5.0 %
SCF iterations                   ...       19.435 sec (=   0.324 min)  69.1 %
SCF Response                     ...        6.883 sec (=   0.115 min)  24.5 %
Property calculations            ...        0.401 sec (=   0.007 min)   1.4 %
                             ****ORCA TERMINATED NORMALLY****
TOTAL RUN TIME: 0 days 0 hours 0 minutes 28 seconds 608 msec
