
                                 *****************
                                 * O   R   C   A *
                                 *****************

                                            #,                                       
                                            ###                                      
                                            ####                                     
                                            #####                                    
                                            ######                                   
                                           ########,                                 
                                     ,,################,,,,,                         
                               ,,#################################,,                 
                          ,,##########################################,,             
                       ,#########################################, ''#####,          
                    ,#############################################,,   '####,        
                  ,##################################################,,,,####,       
                ,###########''''           ''''###############################       
              ,#####''   ,,,,##########,,,,          '''####'''          '####       
            ,##' ,,,,###########################,,,                        '##       
           ' ,,###''''                  '''############,,,                           
         ,,##''                                '''############,,,,        ,,,,,,###''
      ,#''                                            '''#######################'''  
     '                                                          ''''####''''         
             ,#######,   #######,   ,#######,      ##                                
            ,#'     '#,  ##    ##  ,#'     '#,    #''#        ,####,    ,#,          
            ##       ##  ##   ,#'  ##            #'  '#       #'       ,# #          
            ##       ##  #######   ##           ,######,      #####,      #          
            '#,     ,#'  ##    ##  '#,     ,#' ,#      #,     #,   #      #          
             '#######'   ##     ##  '#######'  #'      '#     '####' #    #          



                #########################################################
                #                        -***-                          #
                #          Department of theory and spectroscopy        #
                #                                                       #
                #                      Frank Neese                      #
                #                                                       #
                #     Directorship, Architecture, Infrastructure        #
                #                    SHARK, DRIVERS                     #
                #        Core code/Algorithms in most modules           #
                #                                                       #
                #        Max Planck Institute fuer Kohlenforschung      #
                #                Kaiser Wilhelm Platz 1                 #
                #                 D-45470 Muelheim/Ruhr                 #
                #                      Germany                          #
                #                                                       #
                #                  All rights reserved                  #
                #                        -***-                          #
                #########################################################


                         Program Version 6.1.1  -  RELEASE   -
                                (GIT: $487d211c$)
                          ($2025-11-21 10:33:24 +0100$)
                                                                         
                                  - NO-DMRG VERSION -                    
                                                                         


 With contributions from (in alphabetic order):
[Max-Planck-Institut fuer Kohlenforschung]                               
  Daniel Aravena         : Magnetic Suceptibility                        
  Michael Atanasov       : Ab Initio Ligand Field Theory (pilot matlab implementation)
  Alexander A. Auer      : GIAO ZORA, VPT2 properties, NMR spectrum      
  Ute Becker             : All parallelization in ORCA, NUMFREQ, NUMCALC 
  Giovanni Bistoni       : ED, misc. LED, open-shell LED, HFLD           
  Dmytro Bykov           : pre 5.0 version of the SCF Hessian            
  Marcos Casanova-Páez   : Triplet and SCS-CIS(D). UHF-(DLPNO)-IP/EA/STEOM-CCSD. UHF-CVS-IP/STEOM-CCSD   
  Vijay G. Chilkuri      : MRCI spin determinant printing, contributions to CSF-ICE 
  Pauline Colinet        : FMM embedding                                 
  Dipayan Datta          : RHF DLPNO-CCSD density                        
  Achintya Kumar Dutta   : EOM-CC, STEOM-CC                              
  Nicolas Foglia         : Exact transition moments, OPA infrastructure, MCD improvements    
  Dmitry Ganyushin       : Spin-Orbit,Spin-Spin,Magnetic field MRCI      
  Miquel Garcia-Rates    : C-PCM and meta-GGA Hessian, CCSD/C-PCM, Gaussian charge scheme 
  Tiago L. C. Gouveia    : GS-ROHF, GS-ROCIS                             
  Yang Guo               : DLPNO-NEVPT2, F12-NEVPT2, CIM, IAO-localization        
  Andreas Hansen         : Spin unrestricted coupled pair/coupled cluster methods 
  Ingolf Harden          : AUTO-CI MPn and infrastructure                
  Benjamin Helmich-Paris : MC-RPA, TRAH-(SCF,CASSCF), AVAS, COSX integrals, SCF dyn. polar., MC-PDFT, srDFT 
  Lee Huntington         : MR-EOM, pCC                                   
  Robert Izsak           : Overlap fitted RIJCOSX, COSX-SCS-MP3, EOM     
  Riya Kayal             : Wick's Theorem for AUTO-CI, AUTO-CI UHF-CCSDT 
  Emily Kempfer          : AUTO-CI RHF CISDT and CCSDT, approximate NEVPT4
  Christian Kollmar      : KDIIS, OOCD, Brueckner-CCSD(T), CCSD density, CASPT2, CASPT2-K, improved NEVPT2 
  Axel Koslowski         : Symmetry handling                             
  Simone Kossmann        : meta-GGA functionals, TD-DFT gradient, OOMP2, (MP2 Hessian; deprecated post 5.0) 
  Lucas Lang             : DCDCAS, Hyperfine gauge corrections, ICE-SOC+SSC
  Marvin Lechner         : AUTO-CI (C++ implementation), FIC-MRCC        
  Spencer Leger          : CASSCF response                               
  Dagmar Lenk            : GEPOL surface, SMD, ORCA-2-JSON               
  Dimitrios Liakos       : Extrapolation schemes; Compound Job, Property file
  Dimitrios Manganas     : Further ROCIS development; embedding schemes. LFT, Crystal Embedding 
  Dimitrios Pantazis     : SARC Basis sets                               
  Anastasios Papadopoulos: AUTO-CI, single reference methods and gradients 
  Taras Petrenko         : pre 6.0 DFT Hessian and TD-DFT gradient,  ECA, NRVS 
  Petra Pikulova         : Analytic Raman intensities                    
  Peter Pinski           : DLPNO-MP2, DLPNO-MP2 Gradient                 
  Shashank Vittal Rao    : ES-AILFT, MagRelax                            
  Christoph Reimann      : Effective Core Potentials                     
  Marius Retegan         : Local ZFS, SOC                                
  Christoph Riplinger    : Optimizer, TS searches, QM/MM, DLPNO-CCSD(T), (RO)-DLPNO pert. Triples 
  Michael Roemelt        : Original ROCIS implementation, recursive CI coupling coefficients
  Masaaki Saitow         : Open-shell DLPNO-CCSD energy and density      
  Barbara Sandhoefer     : DKH picture change effects                    
  Yorick L. A. Schmerwitz: GMF and freeze-and-release deltaSCF, NEB S-IDPP initial path                    
  Kantharuban Sivalingam : CASSCF convergence/infrastructure, NEVPT2, NEVPT3, NEVPT4(SD), FIC-MRCI and CEPA variants
  Bernardo de Souza      : ESD, SOC TD-DFT                               
  Georgi L. Stoychev     : AutoAux, RI-MP2 NMR, DLPNO-MP2 response, X2C  
  Van Anh Tran           : RI-MP2 g-tensors                              
  Willem Van den Heuvel  : Paramagnetic NMR                              
  Zikuan Wang            : NOTCH, Electric field optimization            
  Frank Wennmohs         : Technical directorship and infrastructure     
  Hang Xu                : AUTO-CI-Response properties                   
                                                                         
[FACCTs GmbH]                                                            
  Markus Bursch, Nicolas Foglia, Miquel Garcia-Rates, Ingolf Harden, Hagen Neugebauer, Anastasios Papadopoulos, 
  Christoph Riplinger, Bernardo de Souza, Georgi L. Stoychev                                                    
                                                                 
  APM, various basis sets, CI-OPT, improved COSX, DLPNO-Multilevel,           
  DOCKER, DRACO, updates on ESD, Fragmentator, GOAT, IRC, LR-CPCM, L-BFGS, MBIS, meta-GGA TD-DFT gradient, ML-optimized integration grids, 
  MM, NACMEs, nearIR, NEB, NEB-TS, NL-DFT gradient (VV10), 2- and 3-layer-ONIOM, interface openCOSMO-RS, QMMM,   
  Crystal-QMMM, RESP, rigid body optimization, SF, symmetry and pop. for TD-DFT, various functionals, SOLVATOR                                   
                                                                         
[Other institutions]                                                     
  V. Asgeirsson          : NEB                                           
  Christoph Bannwarth    : sTDA-DFT, sTD-DFT, PBEh-3c, B97-3c, D3        
  Giovanni Bistoni       : ETS/NOCV, ADLD/ADEX, COVALED                  
  Martin Brehm           : Molecular dynamics                            
  Ronald Cardenas        : ETS/NOCV                                      
  Martina Colucci        : COVALED                                       
  Sebastian Ehlert       : rSCAN, r2SCAN, r2SCAN-3c, D4, dhf basis sets  
  Marvin Friede          : D4 for Fr, Ra, Ac-Lr                          
  Lars Goerigk           : TD-DFT with DH, B97 family of functionals     
  Stefan Grimme          : VdW corrections, initial TS optimization, DFT functionals, gCP, sTDA/sTD-DF 
  Waldemar Hujo          : DFT-NL                                        
  H. Jonsson             : NEB                                           
  Holger Kruse           : gCP                                           
  Marcel Mueller         : wB97X-3c, vDZP basis set                      
  Hagen Neugebauer       : wr2SCAN, Native XTB                           
  Gianluca Regni         : ADLD/ADEX                                     
  Tobias Risthaus        : pre 6.0 range-separated hybrid DFT and stability analysis
  Lukas Wittmann         : regularized MP2, r2SCAN double-hybrids, wr2SCAN        
                                                                         
We gratefully acknowledge several colleagues who have allowed us to      
interface, adapt or use parts of their codes:                            
  Ed Valeev, F. Pavosevic, A. Kumar             : LibInt (2-el integral package), F12 methods 
  Garnet Chan, S. Sharma, J. Yang, R. Olivares  : DMRG                   
  Ulf Ekstrom                                   : XCFun DFT Library      
  Mihaly Kallay                                 : mrcc  (arbitrary order and MRCC methods)
  Frank Weinhold                                : gennbo (NPA and NBO analysis)           
  Simon Mueller                                 : openCOSMO-RS                            
  Christopher J. Cramer and Donald G. Truhlar   : smd solvation model                     
  S Lehtola, MJT Oliveira, MAL Marques          : LibXC Library                           
  Liviu Ungur et al                             : ANISO software                          


 Your calculation uses the libint2 library for the computation of 2-el integrals
 For citations please refer to: http://libint.valeyev.net

 Your ORCA version has been built with support for libXC version: 7.0.0
 For citations please refer to: https://libxc.gitlab.io

 This ORCA versions uses:
   CBLAS   interface :  Fast vector & matrix operations
   LAPACKE interface :  Fast linear algebra routines
   SCALAPACK package :  Parallel linear algebra routines
   Shared memory     :  Shared parallel matrices
   BLAS/LAPACK       :  OpenBLAS 0.3.29  USE64BITINT DYNAMIC_ARCH NO_AFFINITY Haswell SINGLE_THREADED
        Core in use  :  Haswell
   Copyright (c) 2011-2014, The OpenBLAS Project


  ***********************************
  * Starting time: Sat Mar 28 20:15:28 2026
  * Host name:     1f81806d2902
  * Process ID:    709
  * Working dir.:  /kaggle/working
  ***********************************

NOTE: MaxCore=3000 MB was set to SCF,MP2,MDCI,CIPSI,MRCI,RASCI and CIS
      => If you want to overwrite this, your respective input block should be placed after the MaxCore statement
Your calculation utilizes the atom-pairwise dispersion correction
with the Becke-Johnson damping scheme (D3BJ)


Warning: RI is on but no J-basis has been assigned. Assigning Def2/J (nothing to worry about!)
================================================================================

----- Orbital basis set information -----
Your calculation utilizes the basis: 6-31G(d,p)
   H-He, Li-Ne : W. J. Hehre, R. Ditchfield and J.A. Pople, J. Chem. Phys. 56, 2257 (1972).
                 Note: He and Ne are unpublished basis sets taken from the Gaussian program.
                 Note: Li and B from J. D. Dill and J. A. Pople, J. Chem. Phys. 62, 2921 (1975).
   Na - Ar     : M. M. Francl, W. J. Pietro, W. J. Hehre, J. S. Binkley, M. S. Gordon, 
                 D. J. DeFrees and J. A. Pople, J. Chem. Phys. 77, 3654 (1982).
   K - Zn      : V. A. Rassolov, J. A. Pople, M. A. Ratner, and T. L. Windus, J. Chem. Phys. 109, 1223 (1998).

----- AuxJ basis set information -----
Your calculation utilizes the auxiliary basis: def2/J
   H-Rn: F. Weigend, Phys. Chem. Chem. Phys. 8, 1057 (2006).
   Fr-Lr: K. Eichkorn, F. Weigend, O. Treutler, R. Ahlrichs; Theor. Chem. Acc. 97, 119 (1997).

================================================================================
                                        WARNINGS
                       Please study these warnings very carefully!
================================================================================


================================================================================
                                       INPUT FILE
================================================================================
NAME = /kaggle/working/Val-2/Val_InterFrag.inp
|  1> 
|  2> !RKS B3LYP 6-31G(d,p) TightSCF D3BJ # def2-TZVPP
|  3> 
|  4> %pal nprocs 2 end
|  5> %maxcore 3000
|  6> 
|  7> %elprop
|  8>   Polar 1      # polarizability via CP-SCF
|  9> end
| 10> 
| 11> %output
| 12>   PrintLevel Normal
| 13>   Print[ P_OrbEn ] 2
| 14> end
| 15> 
| 16> *xyz 0 1
| 17>   O     -1.384078   -1.445171   -0.002480
| 18>   O     -1.741794    0.570815    0.933681
| 19>   N     -0.182174    1.792308   -1.005637
| 20>   C      1.367702    0.040110   -0.205351
| 21>   C     -0.038863    0.348926   -0.797033
| 22>   C      1.723768   -1.447089   -0.283611
| 23>   C      1.539539    0.577888    1.219000
| 24>   C     -1.137736   -0.125911    0.134589
| 25>   H      2.059430    0.583622   -0.863620
| 26>   H     -0.137768   -0.237430   -1.721894
| 27>   H      1.602613   -1.835516   -1.300630
| 28>   H      1.095938   -2.045566    0.383778
| 29>   H      2.766331   -1.599880    0.014265
| 30>   H      0.926245    0.014158    1.931917
| 31>   H      2.583200    0.484310    1.536244
| 32>   H      1.256197    1.631378    1.286011
| 33>   H     -1.093341    1.972582   -1.423253
| 34>   H      0.504611    2.064009   -1.706464
| 35>   H     -2.061422   -1.691342    0.654090
| 36> 
| 37> *
| 38> 
| 39>                          ****END OF INPUT****
================================================================================

                       ****************************
                       * Single Point Calculation *
                       ****************************

---------------------------------
CARTESIAN COORDINATES (ANGSTROEM)
---------------------------------
  O     -1.384078   -1.445171   -0.002480
  O     -1.741794    0.570815    0.933681
  N     -0.182174    1.792308   -1.005637
  C      1.367702    0.040110   -0.205351
  C     -0.038863    0.348926   -0.797033
  C      1.723768   -1.447089   -0.283611
  C      1.539539    0.577888    1.219000
  C     -1.137736   -0.125911    0.134589
  H      2.059430    0.583622   -0.863620
  H     -0.137768   -0.237430   -1.721894
  H      1.602613   -1.835516   -1.300630
  H      1.095938   -2.045566    0.383778
  H      2.766331   -1.599880    0.014265
  H      0.926245    0.014158    1.931917
  H      2.583200    0.484310    1.536244
  H      1.256197    1.631378    1.286011
  H     -1.093341    1.972582   -1.423253
  H      0.504611    2.064009   -1.706464
  H     -2.061422   -1.691342    0.654090

----------------------------
CARTESIAN COORDINATES (A.U.)
----------------------------
  NO LB      ZA    FRAG     MASS         X           Y           Z
   0 O     8.0000    0    15.999   -2.615528   -2.730977   -0.004687
   1 O     8.0000    0    15.999   -3.291514    1.078684    1.764401
   2 N     7.0000    0    14.007   -0.344259    3.386971   -1.900379
   3 C     6.0000    0    12.011    2.584582    0.075797   -0.388057
   4 C     6.0000    0    12.011   -0.073440    0.659375   -1.506174
   5 C     6.0000    0    12.011    3.257449   -2.734602   -0.535947
   6 C     6.0000    0    12.011    2.909307    1.092050    2.303576
   7 C     6.0000    0    12.011   -2.150009   -0.237937    0.254336
   8 H     1.0000    0     1.008    3.891759    1.102886   -1.632005
   9 H     1.0000    0     1.008   -0.260344   -0.448678   -3.253908
  10 H     1.0000    0     1.008    3.028500   -3.468623   -2.457835
  11 H     1.0000    0     1.008    2.071023   -3.865560    0.725235
  12 H     1.0000    0     1.008    5.227608   -3.023335    0.026957
  13 H     1.0000    0     1.008    1.750349    0.026755    3.650794
  14 H     1.0000    0     1.008    4.881541    0.915213    2.903080
  15 H     1.0000    0     1.008    2.373868    3.082858    2.430209
  16 H     1.0000    0     1.008   -2.066115    3.727640   -2.689558
  17 H     1.0000    0     1.008    0.953577    3.900412   -3.224750
  18 H     1.0000    0     1.008   -3.895523   -3.196173    1.236051

--------------------------------
INTERNAL COORDINATES (ANGSTROEM)
--------------------------------
 O      0   0   0     0.000000000000     0.00000000     0.00000000
 O      1   0   0     2.251345754604     0.00000000     0.00000000
 N      2   1   0     2.772257924251    90.81795409     0.00000000
 C      3   2   1     2.472401894591    79.27869000   307.41851271
 C      3   2   1     1.465402766976    61.40889305   341.27877299
 C      4   3   2     1.531231037289   144.84025847    78.86399326
 C      4   3   2     1.532158250004    97.03453342   294.84946208
 C      2   1   3     1.220189006222    30.42609207   349.16869754
 H      4   3   2     1.098731539772    81.38212736   187.39216253
 H      5   3   2     1.099528729539   113.37389939   127.68278486
 H      6   4   3     1.095391124081   111.47759171    38.75434826
 H      6   4   3     1.094419163643   111.50329666   277.97692817
 H      6   4   3     1.094994433788   110.06105108   158.52314523
 H      7   4   3     1.096435904294   111.17797620   101.21300121
 H      7   4   3     1.094819108593   110.26066536   220.35278941
 H      7   4   3     1.092984145898   111.48346392   340.51144060
 H      3   2   1     1.018394393357    82.03975796    97.66788698
 H      3   2   1     1.018161850373   168.11816061   324.88833420
 H      1   2   3     0.974925238404    80.54200712   188.45890148

---------------------------
INTERNAL COORDINATES (A.U.)
---------------------------
 O      0   0   0     0.000000000000     0.00000000     0.00000000
 O      1   0   0     4.254426908968     0.00000000     0.00000000
 N      2   1   0     5.238808249428    90.81795409     0.00000000
 C      3   2   1     4.672162473765    79.27869000   307.41851271
 C      3   2   1     2.769209905475    61.40889305   341.27877299
 C      4   3   2     2.893607308236   144.84025847    78.86399326
 C      4   3   2     2.895359486335    97.03453342   294.84946208
 C      2   1   3     2.305823053380    30.42609207   349.16869754
 H      4   3   2     2.076301704870    81.38212736   187.39216253
 H      5   3   2     2.077808175207   113.37389939   127.68278486
 H      6   4   3     2.069989234041   111.47759171    38.75434826
 H      6   4   3     2.068152495001   111.50329666   277.97692817
 H      6   4   3     2.069239598027   110.06105108   158.52314523
 H      7   4   3     2.071963582514   111.17797620   101.21300121
 H      7   4   3     2.068908281425   110.26066536   220.35278941
 H      7   4   3     2.065440704466   111.48346392   340.51144060
 H      3   2   1     1.924486499766    82.03975796    97.66788698
 H      3   2   1     1.924047057212   168.11816061   324.88833420
 H      1   2   3     1.842341701631    80.54200712   188.45890148

---------------------
BASIS SET INFORMATION
---------------------
There are 4 groups of distinct atoms

 Group   1 Type O   : 10s4p1d contracted to 3s2p1d pattern {631/31/1}
 Group   2 Type N   : 10s4p1d contracted to 3s2p1d pattern {631/31/1}
 Group   3 Type C   : 10s4p1d contracted to 3s2p1d pattern {631/31/1}
 Group   4 Type H   : 4s1p contracted to 2s1p pattern {31/1}

Atom   0O    basis set group =>   1
Atom   1O    basis set group =>   1
Atom   2N    basis set group =>   2
Atom   3C    basis set group =>   3
Atom   4C    basis set group =>   3
Atom   5C    basis set group =>   3
Atom   6C    basis set group =>   3
Atom   7C    basis set group =>   3
Atom   8H    basis set group =>   4
Atom   9H    basis set group =>   4
Atom  10H    basis set group =>   4
Atom  11H    basis set group =>   4
Atom  12H    basis set group =>   4
Atom  13H    basis set group =>   4
Atom  14H    basis set group =>   4
Atom  15H    basis set group =>   4
Atom  16H    basis set group =>   4
Atom  17H    basis set group =>   4
Atom  18H    basis set group =>   4
---------------------------------
AUXILIARY/J BASIS SET INFORMATION
---------------------------------
There are 4 groups of distinct atoms

 Group   1 Type O   : 12s5p4d2f1g contracted to 6s4p3d1f1g pattern {711111/2111/211/2/1}
 Group   2 Type N   : 12s5p4d2f1g contracted to 6s4p3d1f1g pattern {711111/2111/211/2/1}
 Group   3 Type C   : 12s5p4d2f1g contracted to 6s4p3d1f1g pattern {711111/2111/211/2/1}
 Group   4 Type H   : 5s2p1d contracted to 3s1p1d pattern {311/2/1}

Atom   0O    basis set group =>   1
Atom   1O    basis set group =>   1
Atom   2N    basis set group =>   2
Atom   3C    basis set group =>   3
Atom   4C    basis set group =>   3
Atom   5C    basis set group =>   3
Atom   6C    basis set group =>   3
Atom   7C    basis set group =>   3
Atom   8H    basis set group =>   4
Atom   9H    basis set group =>   4
Atom  10H    basis set group =>   4
Atom  11H    basis set group =>   4
Atom  12H    basis set group =>   4
Atom  13H    basis set group =>   4
Atom  14H    basis set group =>   4
Atom  15H    basis set group =>   4
Atom  16H    basis set group =>   4
Atom  17H    basis set group =>   4
Atom  18H    basis set group =>   4


           ************************************************************
           *        Program running with 2 parallel MPI-processes     *
           *              working on a common directory               *
           ************************************************************
------------------------------------------------------------------------------
                             ORCA STARTUP CALCULATIONS
                           -- RI-GTO INTEGRALS CHOSEN --
------------------------------------------------------------------------------
------------------------------------------------------------------------------
                   ___                                                        
                  /   \      - P O W E R E D   B Y -                         
                 /     \                                                     
                 |  |  |   _    _      __       _____    __    __             
                 |  |  |  | |  | |    /  \     |  _  \  |  |  /  |          
                  \  \/   | |  | |   /    \    | | | |  |  | /  /          
                 / \  \   | |__| |  /  /\  \   | |_| |  |  |/  /          
                |  |  |   |  __  | /  /__\  \  |    /   |      \           
                |  |  |   | |  | | |   __   |  |    \   |  |\   \          
                \     /   | |  | | |  |  |  |  | |\  \  |  | \   \       
                 \___/    |_|  |_| |__|  |__|  |_| \__\ |__|  \__/        
                                                                              
                      - O R C A' S   B I G   F R I E N D -                    
                                      &                                       
                       - I N T E G R A L  F E E D E R -                       
                                                                              
 v1 FN, 2020, v2 2021, v3 2022-2024                                           
------------------------------------------------------------------------------


----------------------
SHARK INTEGRAL PACKAGE
----------------------

Number of atoms                             ...     19
Number of basis functions                   ...    167
Number of shells                            ...     81
Maximum angular momentum                    ...      2
Integral batch strategy                     ... SHARK/LIBINT Hybrid
RI-J (if used) integral strategy            ... SPLIT-RIJ (Revised 2003 algorithm where possible)
Printlevel                                  ...      1
Contraction scheme used                     ... SEGMENTED contraction
Prescreening option                         ... SCHWARTZ
   Thresh                                   ... 2.500e-11
   Tcut                                     ... 2.500e-12
   Tpresel                                  ... 2.500e-12 
Coulomb Range Separation                    ... NOT USED
Exchange Range Separation                   ... NOT USED
Multipole approximations                    ... NOT USED
Finite Nucleus Model                        ... NOT USED
CABS basis                                  ... NOT available
Auxiliary Coulomb fitting basis             ... AVAILABLE
   # of basis functions in Aux-J            ...    513
   # of shells in Aux-J                     ...    175
   Maximum angular momentum in Aux-J        ...      4
Auxiliary J/K fitting basis                 ... NOT available
Auxiliary Correlation fitting basis         ... NOT available
Auxiliary 'external' fitting basis          ... NOT available

Checking pre-screening integrals            ... done (  0.0 sec) Dimension = 81
   => SHARK Basis and OBASIS are compatible. Storing Pre-screening
Shell pair information
Shell pair cut-off parameter TPreSel        ...   2.5e-12
Total number of shell pairs                 ...      3321
Shell pairs after pre-screening             ...      3121
Total number of primitive shell pairs       ...     15601
Primitive shell pairs kept                  ...      9983
          la=0 lb=0:   1013 shell pairs
          la=1 lb=0:   1153 shell pairs
          la=1 lb=1:    349 shell pairs
          la=2 lb=0:    359 shell pairs
          la=2 lb=1:    211 shell pairs
          la=2 lb=2:     36 shell pairs

Checking whether 4 symmetric matrices of dimension 167 fit in memory
:Max Core in MB      =   3000.00
 MB in use           =      7.58
 MB left             =   2992.42
 MB needed           =      0.43
 Data fit in memory  = YES
Calculating RI/J V-Matrix + Cholesky decomp.... done (  0.0 sec)
Calculating Nuclear repulsion               ... done (  0.0 sec) ENN=    410.190758448756 Eh

Diagonalization of the overlap matrix:
Smallest eigenvalue                        ... 3.209e-03
Time for diagonalization                   ...    0.004 sec
Threshold for overlap eigenvalues          ... 1.000e-07
Number of eigenvalues below threshold      ... 0
Time for construction of square roots      ...    0.002 sec
Total time needed                          ...    0.008 sec

-------------------
DFT GRID GENERATION
-------------------

General Integration Accuracy     IntAcc      ... 4.388
Radial Grid Type                 RadialGrid  ... OptM3 with GC (2021)
Angular Grid (max. ang.)         AngularGrid ... 4 (Lebedev-302)
Angular grid pruning method      GridPruning ... 4 (adaptive)
Weight generation scheme         WeightScheme... mBecke (2022)
Basis function cutoff            BFCut       ... 1.0000e-11
Integration weight cutoff        WCut        ... 1.0000e-14
Partially contracted basis set               ... off
Rotationally invariant grid construction     ... off
Angular grids for H and He will be reduced by one unit

Total number of grid points                  ...    83368
Total number of batches                      ...     1314
Average number of points per batch           ...       63
Average number of grid points per atom       ...     4388

--------------------
COSX GRID GENERATION
--------------------

GRIDX 1
-------
General Integration Accuracy     IntAcc      ... 3.816
Radial Grid Type                 RadialGrid  ... OptM3 with GC (2021)
Angular Grid (max. ang.)         AngularGrid ... 1 (Lebedev-50)
Angular grid pruning method      GridPruning ... 4 (adaptive)
Weight generation scheme         WeightScheme... mBecke (2022)
Basis function cutoff            BFCut       ... 1.0000e-11
Integration weight cutoff        WCut        ... 1.0000e-14
Partially contracted basis set               ... on
Rotationally invariant grid construction     ... off
Angular grids for H and He will be reduced by one unit

Total number of grid points                  ...    10665
Total number of batches                      ...       96
Average number of points per batch           ...      111
Average number of grid points per atom       ...      561
UseSFitting                                  ... on

GRIDX 2
-------
General Integration Accuracy     IntAcc      ... 4.020
Radial Grid Type                 RadialGrid  ... OptM3 with GC (2021)
Angular Grid (max. ang.)         AngularGrid ... 2 (Lebedev-110)
Angular grid pruning method      GridPruning ... 4 (adaptive)
Weight generation scheme         WeightScheme... mBecke (2022)
Basis function cutoff            BFCut       ... 1.0000e-11
Integration weight cutoff        WCut        ... 1.0000e-14
Partially contracted basis set               ... on
Rotationally invariant grid construction     ... off
Angular grids for H and He will be reduced by one unit

Total number of grid points                  ...    22600
Total number of batches                      ...      187
Average number of points per batch           ...      120
Average number of grid points per atom       ...     1189
UseSFitting                                  ... on

GRIDX 3
-------
General Integration Accuracy     IntAcc      ... 4.338
Radial Grid Type                 RadialGrid  ... OptM3 with GC (2021)
Angular Grid (max. ang.)         AngularGrid ... 3 (Lebedev-194)
Angular grid pruning method      GridPruning ... 4 (adaptive)
Weight generation scheme         WeightScheme... mBecke (2022)
Basis function cutoff            BFCut       ... 1.0000e-11
Integration weight cutoff        WCut        ... 1.0000e-14
Partially contracted basis set               ... on
Rotationally invariant grid construction     ... off
Angular grids for H and He will be reduced by one unit

Total number of grid points                  ...    49387
Total number of batches                      ...      397
Average number of points per batch           ...      124
Average number of grid points per atom       ...     2599
UseSFitting                                  ... on
Grids setup in   1.7 sec
Initializing property integral containers    ... done (  0.0 sec)

SHARK setup successfully completed in   1.8 seconds

Maximum memory used throughout the entire STARTUP-calculation: 28.5 MB


           ************************************************************
           *        Program running with 2 parallel MPI-processes     *
           *              working on a common directory               *
           ************************************************************
-------------------------------------------------------------------------------
                                 ORCA GUESS
                   Start orbitals & Density for SCF / CASSCF
-------------------------------------------------------------------------------

------------
SCF SETTINGS
------------
Hamiltonian:
 Density Functional     Method          .... DFT(GTOs)
 Exchange Functional    Exchange        .... B88
   X-Alpha parameter    XAlpha          ....  0.666667
   Becke's b parameter  XBeta           ....  0.004200
 Correlation Functional Correlation     .... LYP
 LDA part of GGA corr.  LDAOpt          .... VWN-5
 Gradients option       PostSCFGGA      .... off
 Hybrid DFT is turned on
   Fraction HF Exchange ScalHFX         ....  0.200000
   Scaling of DF-GGA-X  ScalDFX         ....  0.720000
   Scaling of DF-GGA-C  ScalDFC         ....  0.810000
   Scaling of DF-LDA-C  ScalLDAC        ....  1.000000
   Perturbative correction              ....  0.000000
   NL short-range parameter             ....  4.800000
 RI-approximation to the Coulomb term is turned on
   Number of AuxJ basis functions       .... 513
   RIJ-COSX (HFX calculated with COS-X)).... on


General Settings:
 Integral files         IntName         .... /kaggle/working/Val-2/Val_InterFrag
 Hartree-Fock type      HFTyp           .... RHF
 Total Charge           Charge          ....    0
 Multiplicity           Mult            ....    1
 Number of Electrons    NEL             ....   64
 Basis Dimension        Dim             ....  167
 Nuclear Repulsion      ENuc            ....    410.1907584488 Eh

Convergence Acceleration:
 AO-DIIS                CNVDIIS         .... on
   Start iteration      DIISMaxIt       ....    12
   Startup error        DIISStart       ....  0.200000
   # of expansion vecs  DIISMaxEq       ....     5
   Bias factor          DIISBfac        ....   1.050
   Max. coefficient     DIISMaxC        ....  10.000
 MO-DIIS                CNVKDIIS        .... off
 Trust-Rad. Augm. Hess. CNVTRAH         .... auto
   Auto Start mean grad. ratio tolernc. ....  1.125000
   Auto Start start iteration           ....    50
   Auto Start num. interpolation iter.  ....    10
   Max. Number of Micro iterations      ....    24
   Max. Number of Macro iterations      .... Maxiter - #DIIS iter
   Number of Davidson start vectors     ....     2
   Converg. threshold    (grad. norm)   ....   1.000e-05
   Grad. Scal. Fac. for Micro threshold ....   0.100
   Minimum threshold for Micro iter.    ....   1.000e-02
   NR start threshold (gradient norm)   ....   1.000e-04
   Initial trust radius                 ....   0.400
   Minimum AH scaling param. (alpha)    ....   1.000
   Maximum AH scaling param. (alpha)    .... 1000.000
   Quad. conv. algorithm                .... NR
   White noise on init. David. guess    .... on
   Maximum white noise                  ....   0.010
   Pseudo random numbers                .... off
   Inactive MOs                         .... canonical
   Orbital update algorithm             .... Taylor
   Preconditioner                       .... Diag
   Full preconditioner red. dimension   ....   250
 SOSCF                 CNVSOSCF           .... on
   Start iteration     SOSCFMaxIt         ....   150
   Startup grad/error  SOSCFStart         ....  0.003300
   Hessian update      SOSCFHessUp        .... L-BFGS
   Autom. constraints  SOSCFAutoConstrain .... off
 Level Shifting         CNVShift        .... on
   Level shift para.    LevelShift      ....    0.2500
   Turn off err/grad.   ShiftErr        ....    0.0010
 Zerner damping         CNVZerner       .... off
 Static damping         CNVDamp         .... on
   Fraction old density DampFac         ....    0.7000
   Max. Damping (<1)    DampMax         ....    0.9800
   Min. Damping (>=0)   DampMin         ....    0.0000
   Turn off err/grad.   DampErr         ....    0.1000

SCF Procedure:
 Maximum # iterations   MaxIter         ....   125
 SCF integral mode      SCFMode         .... Direct
   Integral package                     .... SHARK and LIBINT hybrid scheme
 Reset frequency        DirectResetFreq ....    20
 Integral Threshold     Thresh          ....  2.500e-11 Eh
 Primitive CutOff       TCut            ....  2.500e-12 Eh

Convergence Tolerance:
 Convergence Check Mode ConvCheckMode   .... Total+1el-Energy
 Convergence forced     ConvForced      .... 0
 Energy Change          TolE            ....  1.000e-08 Eh
 1-El. energy change                    ....  1.000e-05 Eh
 Orbital Gradient       TolG            ....  1.000e-05
 Orbital Rotation angle TolX            ....  1.000e-05
 DIIS Error             TolErr          ....  5.000e-07

------------------------------
INITIAL GUESS: MODEL POTENTIAL
------------------------------
Loading Hartree-Fock densities                     ... done
Calculating cut-offs                               ... done
Initializing the effective Hamiltonian             ... done
Setting up the integral package (SHARK)            ... done
Starting the Coulomb interaction                   ... done (   0.1 sec)
Making the grid                                    ... done (   0.2 sec)
Mapping shells                                     ... done
Starting the XC term evaluation                    ... done (   0.1 sec)
  promolecular density results
     # of electrons  =     63.991076890
     EX              =    -51.944601118
     EC              =     -2.151970199
     EX+EC           =    -54.096571317
Transforming the Hamiltonian                       ... done (   0.0 sec)
Diagonalizing the Hamiltonian                      ... done (   0.0 sec)
Back transforming the eigenvectors                 ... done (   0.0 sec)
Now organizing SCF variables                       ... done
                      ------------------
                      INITIAL GUESS DONE (   0.5 sec)
                      ------------------
             **** ENERGY FILE WAS UPDATED (/kaggle/working/Val-2/Val_InterFrag.en.tmp) ****
Finished Guess after   0.8 sec
Maximum memory used throughout the entire GUESS-calculation: 11.1 MB


           ************************************************************
           *        Program running with 2 parallel MPI-processes     *
           *              working on a common directory               *
           ************************************************************

-------------------------------------------------------------------------------------------
                                      ORCA LEAN-SCF
                              memory conserving SCF solver
-------------------------------------------------------------------------------------------

----------------------------------------D-I-I-S--------------------------------------------
Iteration    Energy (Eh)           Delta-E    RMSDP     MaxDP     DIISErr   Damp  Time(sec)
-------------------------------------------------------------------------------------------
               ***  Starting incremental Fock matrix formation  ***
    1    -401.7898146899232756     0.00e+00  5.29e-03  9.27e-02  2.59e-01  0.700   3.9
    2    -401.9586324074920753    -1.69e-01  3.53e-03  5.32e-02  1.14e-01  0.700   2.1
                               ***Turning on AO-DIIS***
    3    -402.0192009738979664    -6.06e-02  1.34e-03  1.77e-02  3.67e-02  0.700   2.0
    4    -402.0562685649368291    -3.71e-02  1.92e-03  2.31e-02  1.53e-02  0.000   1.9
    5    -402.1391640107291892    -8.29e-02  5.02e-04  7.43e-03  8.44e-03  0.000   1.9
                              *** Initializing SOSCF ***
---------------------------------------S-O-S-C-F--------------------------------------
Iteration    Energy (Eh)           Delta-E    RMSDP     MaxDP     MaxGrad    Time(sec)
--------------------------------------------------------------------------------------
    6    -402.1397289976815159    -5.65e-04  1.63e-04  2.21e-03  2.55e-03     2.0
               *** Restarting incremental Fock matrix formation ***
    7    -402.1397448817726286    -1.59e-05  1.01e-04  1.51e-03  2.68e-04     3.8
    8    -402.1397462050525178    -1.32e-06  3.00e-05  5.22e-04  1.83e-04     2.7
    9    -402.1397487149662879    -2.51e-06  9.72e-06  1.15e-04  3.62e-05     2.5
   10    -402.1397487010285090     1.39e-08  4.00e-06  9.46e-05  6.62e-05     2.3
   11    -402.1397487479086408    -4.69e-08  2.83e-06  3.67e-05  1.82e-05     2.1
   12    -402.1397487532396440    -5.33e-09  1.50e-06  2.64e-05  1.49e-05     2.0
                 **** Energy Check signals convergence ****

               *****************************************************
               *                     SUCCESS                       *
               *           SCF CONVERGED AFTER  12 CYCLES          *
               *****************************************************

Recomputing exchange energy using gridx3       ... done (    6.085 sec)
Old exchange energy                            :    -10.591443929 Eh
New exchange energy                            :    -10.591486664 Eh
Exchange energy change after final integration :     -0.000042735 Eh
Total energy after final integration           :   -402.139791489 Eh
             **** ENERGY FILE WAS UPDATED (/kaggle/working/Val-2/Val_InterFrag.en.tmp) ****

----------------
TOTAL SCF ENERGY
----------------

Total Energy       :       -402.13979148883419 Eh          -10942.78005 eV

Components:
Nuclear Repulsion  :        410.19075844875550 Eh           11161.85800 eV
Electronic Energy  :       -812.33050720209326 Eh          -22104.63688 eV
One Electron Energy:      -1360.45404625225092 Eh          -37019.83665 eV
Two Electron Energy:        548.12353905015766 Eh           14915.19977 eV

Virial components:
Potential Energy   :       -801.74814417127811 Eh          -21816.67614 eV
Kinetic Energy     :        399.60835268244392 Eh           10873.89609 eV
Virial Ratio       :          2.00633479953409

DFT components:
N(Alpha)           :       32.000015705890 electrons
N(Beta)            :       32.000015705890 electrons
N(Total)           :       64.000031411780 electrons
E(X)               :      -42.057520382302 Eh       
E(C)               :       -2.541988440449 Eh       
E(XC)              :      -44.599508822751 Eh       

---------------
SCF CONVERGENCE
---------------

  Last Energy change         ...    5.3310e-09  Tolerance :   1.0000e-08
  Last MAX-Density change    ...    2.6413e-05  Tolerance :   1.0000e-07
  Last RMS-Density change    ...    1.4978e-06  Tolerance :   5.0000e-09
  Last DIIS Error            ...    2.5511e-03  Tolerance :   5.0000e-07
  Last Orbital Gradient      ...    1.4913e-05  Tolerance :   1.0000e-05
  Last Orbital Rotation      ...    1.3339e-05  Tolerance :   1.0000e-05


----------------
ORBITAL ENERGIES
----------------

  NO   OCC          E(Eh)            E(eV) 
   0   2.0000     -19.190735      -522.2064 
   1   2.0000     -19.127412      -520.4834 
   2   2.0000     -14.312186      -389.4544 
   3   2.0000     -10.307897      -280.4921 
   4   2.0000     -10.218877      -278.0698 
   5   2.0000     -10.189644      -277.2743 
   6   2.0000     -10.166052      -276.6323 
   7   2.0000     -10.157981      -276.4127 
   8   2.0000      -1.100323       -29.9413 
   9   2.0000      -1.003839       -27.3159 
  10   2.0000      -0.890954       -24.2441 
  11   2.0000      -0.789751       -21.4902 
  12   2.0000      -0.702635       -19.1197 
  13   2.0000      -0.675794       -18.3893 
  14   2.0000      -0.612631       -16.6705 
  15   2.0000      -0.559404       -15.2222 
  16   2.0000      -0.494524       -13.4567 
  17   2.0000      -0.481224       -13.0948 
  18   2.0000      -0.474294       -12.9062 
  19   2.0000      -0.453948       -12.3526 
  20   2.0000      -0.429264       -11.6809 
  21   2.0000      -0.423628       -11.5275 
  22   2.0000      -0.410236       -11.1631 
  23   2.0000      -0.386475       -10.5165 
  24   2.0000      -0.380637       -10.3576 
  25   2.0000      -0.369206       -10.0466 
  26   2.0000      -0.331444        -9.0190 
  27   2.0000      -0.329193        -8.9578 
  28   2.0000      -0.328343        -8.9347 
  29   2.0000      -0.308857        -8.4044 
  30   2.0000      -0.263291        -7.1645 
  31   2.0000      -0.240491        -6.5441 
  32   0.0000       0.011073         0.3013 
  33   0.0000       0.075671         2.0591 
  34   0.0000       0.079087         2.1521 
  35   0.0000       0.117221         3.1898 
  36   0.0000       0.134367         3.6563 
  37   0.0000       0.145862         3.9691 
  38   0.0000       0.159684         4.3452 
  39   0.0000       0.170288         4.6338 
  40   0.0000       0.174056         4.7363 
  41   0.0000       0.191945         5.2231 
  42   0.0000       0.194191         5.2842 
  43   0.0000       0.216642         5.8951 
  44   0.0000       0.223682         6.0867 
  45   0.0000       0.230955         6.2846 
  46   0.0000       0.256685         6.9848 
  47   0.0000       0.268088         7.2951 
  48   0.0000       0.284786         7.7494 
  49   0.0000       0.341138         9.2828 
  50   0.0000       0.378637        10.3032 
  51   0.0000       0.507133        13.7998 
  52   0.0000       0.516885        14.0652 
  53   0.0000       0.520131        14.1535 
  54   0.0000       0.535436        14.5699 
  55   0.0000       0.569191        15.4885 
  56   0.0000       0.599073        16.3016 
  57   0.0000       0.615184        16.7400 
  58   0.0000       0.639644        17.4056 
  59   0.0000       0.663765        18.0620 
  60   0.0000       0.670557        18.2468 
  61   0.0000       0.687856        18.7175 
  62   0.0000       0.707129        19.2420 
  63   0.0000       0.728690        19.8287 
  64   0.0000       0.743939        20.2436 
  65   0.0000       0.767549        20.8861 
  66   0.0000       0.776042        21.1172 
  67   0.0000       0.810863        22.0647 
  68   0.0000       0.845231        22.9999 
  69   0.0000       0.851372        23.1670 
  70   0.0000       0.867120        23.5955 
  71   0.0000       0.878652        23.9093 
  72   0.0000       0.883460        24.0402 
  73   0.0000       0.900284        24.4980 
  74   0.0000       0.912952        24.8427 
  75   0.0000       0.919107        25.0102 
  76   0.0000       0.926159        25.2021 
  77   0.0000       0.943760        25.6810 
  78   0.0000       0.946155        25.7462 
  79   0.0000       0.964306        26.2401 
  80   0.0000       0.992790        27.0152 
  81   0.0000       1.015971        27.6460 
  82   0.0000       1.033669        28.1276 
  83   0.0000       1.060492        28.8575 
  84   0.0000       1.074585        29.2409 
  85   0.0000       1.130631        30.7660 
  86   0.0000       1.145345        31.1664 
  87   0.0000       1.198141        32.6031 
  88   0.0000       1.274390        34.6779 
  89   0.0000       1.328591        36.1528 
  90   0.0000       1.363383        37.0995 
  91   0.0000       1.401725        38.1429 
  92   0.0000       1.455517        39.6066 
  93   0.0000       1.479767        40.2665 
  94   0.0000       1.496477        40.7212 
  95   0.0000       1.532475        41.7008 
  96   0.0000       1.581498        43.0348 
  97   0.0000       1.603767        43.6407 
  98   0.0000       1.620021        44.0830 
  99   0.0000       1.710263        46.5386 
 100   0.0000       1.713911        46.6379 
 101   0.0000       1.733566        47.1727 
 102   0.0000       1.767030        48.0833 
 103   0.0000       1.798755        48.9466 
 104   0.0000       1.807775        49.1921 
 105   0.0000       1.825220        49.6668 
 106   0.0000       1.841598        50.1124 
 107   0.0000       1.868855        50.8541 
 108   0.0000       1.909566        51.9619 
 109   0.0000       1.921623        52.2900 
 110   0.0000       1.948784        53.0291 
 111   0.0000       1.977246        53.8036 
 112   0.0000       2.006864        54.6095 
 113   0.0000       2.032665        55.3116 
 114   0.0000       2.054847        55.9152 
 115   0.0000       2.058721        56.0206 
 116   0.0000       2.083788        56.7028 
 117   0.0000       2.095375        57.0180 
 118   0.0000       2.125361        57.8340 
 119   0.0000       2.134841        58.0920 
 120   0.0000       2.145716        58.3879 
 121   0.0000       2.168575        59.0099 
 122   0.0000       2.195481        59.7421 
 123   0.0000       2.233168        60.7676 
 124   0.0000       2.253551        61.3222 
 125   0.0000       2.285940        62.2036 
 126   0.0000       2.306291        62.7574 
 127   0.0000       2.326523        63.3079 
 128   0.0000       2.349963        63.9457 
 129   0.0000       2.381607        64.8068 
 130   0.0000       2.394083        65.1463 
 131   0.0000       2.418076        65.7992 
 132   0.0000       2.446605        66.5755 
 133   0.0000       2.503319        68.1188 
 134   0.0000       2.536547        69.0229 
 135   0.0000       2.547090        69.3098 
 136   0.0000       2.574625        70.0591 
 137   0.0000       2.602756        70.8246 
 138   0.0000       2.630607        71.5825 
 139   0.0000       2.667182        72.5777 
 140   0.0000       2.682179        72.9858 
 141   0.0000       2.716488        73.9194 
 142   0.0000       2.728688        74.2514 
 143   0.0000       2.734765        74.4167 
 144   0.0000       2.760354        75.1130 
 145   0.0000       2.818575        76.6973 
 146   0.0000       2.850337        77.5616 
 147   0.0000       2.866502        78.0015 
 148   0.0000       2.894912        78.7746 
 149   0.0000       2.906163        79.0807 
 150   0.0000       2.924433        79.5779 
 151   0.0000       2.940296        80.0095 
 152   0.0000       2.962532        80.6146 
 153   0.0000       2.997111        81.5555 
 154   0.0000       3.094476        84.2050 
 155   0.0000       3.178746        86.4981 
 156   0.0000       3.203236        87.1645 
 157   0.0000       3.249223        88.4158 
 158   0.0000       3.322186        90.4013 
 159   0.0000       3.349519        91.1450 
 160   0.0000       3.404280        92.6352 
 161   0.0000       3.438558        93.5679 
 162   0.0000       3.457437        94.0816 
 163   0.0000       3.492682        95.0407 
 164   0.0000       3.496481        95.1441 
 165   0.0000       3.514110        95.6238 
 166   0.0000       3.550503        96.6141 

                    ********************************
                    * MULLIKEN POPULATION ANALYSIS *
                    ********************************

-----------------------
MULLIKEN ATOMIC CHARGES
-----------------------
   0 O :   -0.474481
   1 O :   -0.426248
   2 N :   -0.556061
   3 C :   -0.056520
   4 C :   -0.006389
   5 C :   -0.303282
   6 C :   -0.305524
   7 C :    0.526930
   8 H :    0.085932
   9 H :    0.092175
  10 H :    0.094442
  11 H :    0.110433
  12 H :    0.098593
  13 H :    0.101270
  14 H :    0.091849
  15 H :    0.133566
  16 H :    0.239110
  17 H :    0.232061
  18 H :    0.322143
Sum of atomic charges:    0.0000000

--------------------------------
MULLIKEN REDUCED ORBITAL CHARGES
--------------------------------
  0 O s       :     3.825547  s :     3.825547
      pz      :     1.640232  p :     4.625766
      px      :     1.587009
      py      :     1.398525
      dz2     :     0.003128  d :     0.023167
      dxz     :     0.005191
      dyz     :     0.004653
      dx2y2   :     0.006520
      dxy     :     0.003675

  1 O s       :     3.860969  s :     3.860969
      pz      :     1.405814  p :     4.537409
      px      :     1.502368
      py      :     1.629227
      dz2     :     0.007495  d :     0.027870
      dxz     :     0.004721
      dyz     :     0.006093
      dx2y2   :     0.004174
      dxy     :     0.005386

  2 N s       :     3.628833  s :     3.628833
      pz      :     1.541641  p :     3.896556
      px      :     1.145031
      py      :     1.209883
      dz2     :     0.004126  d :     0.030672
      dxz     :     0.011507
      dyz     :     0.003351
      dx2y2   :     0.008931
      dxy     :     0.002756

  3 C s       :     3.210407  s :     3.210407
      pz      :     0.954511  p :     2.802614
      px      :     0.917003
      py      :     0.931100
      dz2     :     0.008211  d :     0.043499
      dxz     :     0.009869
      dyz     :     0.008890
      dx2y2   :     0.009199
      dxy     :     0.007329

  4 C s       :     3.178186  s :     3.178186
      pz      :     0.976039  p :     2.771294
      px      :     0.976552
      py      :     0.818703
      dz2     :     0.007499  d :     0.056909
      dxz     :     0.009059
      dyz     :     0.016298
      dx2y2   :     0.014962
      dxy     :     0.009090

  5 C s       :     3.236217  s :     3.236217
      pz      :     1.040782  p :     3.035343
      px      :     1.035128
      py      :     0.959433
      dz2     :     0.006880  d :     0.031722
      dxz     :     0.004075
      dyz     :     0.007302
      dx2y2   :     0.008153
      dxy     :     0.005311

  6 C s       :     3.236257  s :     3.236257
      pz      :     0.949024  p :     3.037881
      px      :     1.024460
      py      :     1.064397
      dz2     :     0.007368  d :     0.031386
      dxz     :     0.006563
      dyz     :     0.005856
      dx2y2   :     0.008385
      dxy     :     0.003213

  7 C s       :     2.988006  s :     2.988006
      pz      :     0.818435  p :     2.362974
      px      :     0.844717
      py      :     0.699821
      dz2     :     0.022204  d :     0.122089
      dxz     :     0.016105
      dyz     :     0.025193
      dx2y2   :     0.034918
      dxy     :     0.023669

  8 H s       :     0.902530  s :     0.902530
      pz      :     0.003794  p :     0.011539
      px      :     0.004291
      py      :     0.003454

  9 H s       :     0.896852  s :     0.896852
      pz      :     0.005504  p :     0.010973
      px      :     0.002219
      py      :     0.003250

 10 H s       :     0.894164  s :     0.894164
      pz      :     0.006108  p :     0.011394
      px      :     0.002465
      py      :     0.002821

 11 H s       :     0.878009  s :     0.878009
      pz      :     0.003909  p :     0.011558
      px      :     0.004056
      py      :     0.003593

 12 H s       :     0.890016  s :     0.890016
      pz      :     0.002728  p :     0.011390
      px      :     0.006365
      py      :     0.002297

 13 H s       :     0.887325  s :     0.887325
      pz      :     0.004251  p :     0.011405
      px      :     0.003804
      py      :     0.003350

 14 H s       :     0.896728  s :     0.896728
      pz      :     0.002662  p :     0.011422
      px      :     0.006315
      py      :     0.002446

 15 H s       :     0.854858  s :     0.854858
      pz      :     0.002159  p :     0.011576
      px      :     0.002780
      py      :     0.006637

 16 H s       :     0.737140  s :     0.737140
      pz      :     0.007358  p :     0.023750
      px      :     0.010940
      py      :     0.005452

 17 H s       :     0.744127  s :     0.744127
      pz      :     0.009345  p :     0.023812
      px      :     0.008476
      py      :     0.005990

 18 H s       :     0.640246  s :     0.640246
      pz      :     0.014748  p :     0.037611
      px      :     0.015220
      py      :     0.007643


------------------------
MULLIKEN OVERLAP CHARGES
------------------------
B(  0-O ,  1-O ) :  -0.1658 B(  0-O ,  4-C ) :  -0.1722 B(  0-O ,  7-C ) :   0.5702 
B(  0-O , 18-H ) :   0.5450 B(  1-O ,  4-C ) :  -0.1591 B(  1-O ,  7-C ) :   1.2346 
B(  2-N ,  3-C ) :  -0.0860 B(  2-N ,  4-C ) :   0.6098 B(  2-N ,  7-C ) :  -0.0907 
B(  2-N ,  9-H ) :  -0.0970 B(  2-N , 16-H ) :   0.6677 B(  2-N , 17-H ) :   0.6582 
B(  3-C ,  4-C ) :   0.6992 B(  3-C ,  5-C ) :   0.7326 B(  3-C ,  6-C ) :   0.7573 
B(  3-C ,  8-H ) :   0.7787 B(  3-C ,  9-H ) :  -0.1013 B(  3-C , 10-H ) :  -0.0604 
B(  3-C , 11-H ) :  -0.0614 B(  3-C , 12-H ) :  -0.0566 B(  3-C , 13-H ) :  -0.0704 
B(  3-C , 14-H ) :  -0.0595 B(  3-C , 15-H ) :  -0.0549 B(  4-C ,  5-C ) :  -0.0738 
B(  4-C ,  6-C ) :  -0.0913 B(  4-C ,  7-C ) :   0.5582 B(  4-C ,  8-H ) :  -0.0983 
B(  4-C ,  9-H ) :   0.7579 B(  4-C , 16-H ) :  -0.0696 B(  4-C , 17-H ) :  -0.0633 
B(  5-C ,  6-C ) :  -0.1020 B(  5-C ,  8-H ) :  -0.0835 B(  5-C , 10-H ) :   0.7535 
B(  5-C , 11-H ) :   0.7663 B(  5-C , 12-H ) :   0.7517 B(  6-C ,  8-H ) :  -0.0855 
B(  6-C , 13-H ) :   0.7655 B(  6-C , 14-H ) :   0.7506 B(  6-C , 15-H ) :   0.7623 
B(  7-C ,  9-H ) :  -0.1080 B( 10-H , 11-H ) :  -0.0609 B( 10-H , 12-H ) :  -0.0619 
B( 11-H , 12-H ) :  -0.0611 B( 13-H , 14-H ) :  -0.0655 B( 13-H , 15-H ) :  -0.0543 
B( 14-H , 15-H ) :  -0.0592 B( 16-H , 17-H ) :  -0.0628 


                     *******************************
                     * LOEWDIN POPULATION ANALYSIS *
                     *******************************

----------------------
LOEWDIN ATOMIC CHARGES
----------------------
   0 O :   -0.154838
   1 O :   -0.229218
   2 N :   -0.253881
   3 C :   -0.056107
   4 C :   -0.042379
   5 C :   -0.196763
   6 C :   -0.195855
   7 C :    0.141462
   8 H :    0.065062
   9 H :    0.059396
  10 H :    0.066368
  11 H :    0.070742
  12 H :    0.069751
  13 H :    0.068132
  14 H :    0.066955
  15 H :    0.083134
  16 H :    0.128575
  17 H :    0.123768
  18 H :    0.185694

-------------------------------
LOEWDIN REDUCED ORBITAL CHARGES
-------------------------------
  0 O s       :     3.476465  s :     3.476465
      pz      :     1.624760  p :     4.629384
      px      :     1.569263
      py      :     1.435361
      dz2     :     0.005921  d :     0.048989
      dxz     :     0.009104
      dyz     :     0.009365
      dx2y2   :     0.015539
      dxy     :     0.009060

  1 O s       :     3.562680  s :     3.562680
      pz      :     1.449118  p :     4.611044
      px      :     1.512836
      py      :     1.649090
      dz2     :     0.010878  d :     0.055493
      dxz     :     0.011860
      dyz     :     0.014443
      dx2y2   :     0.007701
      dxy     :     0.010611

  2 N s       :     3.215501  s :     3.215501
      pz      :     1.539629  p :     3.979801
      px      :     1.169872
      py      :     1.270300
      dz2     :     0.006006  d :     0.058579
      dxz     :     0.017819
      dyz     :     0.006277
      dx2y2   :     0.020202
      dxy     :     0.008276

  3 C s       :     2.884304  s :     2.884304
      pz      :     1.042499  p :     3.073574
      px      :     0.998698
      py      :     1.032376
      dz2     :     0.020293  d :     0.098230
      dxz     :     0.021356
      dyz     :     0.018481
      dx2y2   :     0.022546
      dxy     :     0.015553

  4 C s       :     2.882786  s :     2.882786
      pz      :     1.045835  p :     3.033088
      px      :     1.038894
      py      :     0.948360
      dz2     :     0.015884  d :     0.126506
      dxz     :     0.021659
      dyz     :     0.034927
      dx2y2   :     0.035825
      dxy     :     0.018210

  5 C s       :     2.915932  s :     2.915932
      pz      :     1.090442  p :     3.216520
      px      :     1.089142
      py      :     1.036937
      dz2     :     0.013896  d :     0.064310
      dxz     :     0.007497
      dyz     :     0.014307
      dx2y2   :     0.017663
      dxy     :     0.010946

  6 C s       :     2.914751  s :     2.914751
      pz      :     1.033076  p :     3.217383
      px      :     1.085522
      py      :     1.098785
      dz2     :     0.016467  d :     0.063721
      dxz     :     0.013046
      dyz     :     0.012547
      dx2y2   :     0.015840
      dxy     :     0.005820

  7 C s       :     2.855718  s :     2.855718
      pz      :     0.915460  p :     2.717543
      px      :     0.904290
      py      :     0.897793
      dz2     :     0.048172  d :     0.285277
      dxz     :     0.038260
      dyz     :     0.060745
      dx2y2   :     0.085165
      dxy     :     0.052936

  8 H s       :     0.897138  s :     0.897138
      pz      :     0.012715  p :     0.037801
      px      :     0.014143
      py      :     0.010943

  9 H s       :     0.900411  s :     0.900411
      pz      :     0.020240  p :     0.040193
      px      :     0.007452
      py      :     0.012502

 10 H s       :     0.895213  s :     0.895213
      pz      :     0.022248  p :     0.038418
      px      :     0.007020
      py      :     0.009150

 11 H s       :     0.889804  s :     0.889804
      pz      :     0.013609  p :     0.039454
      px      :     0.013408
      py      :     0.012437

 12 H s       :     0.891775  s :     0.891775
      pz      :     0.008193  p :     0.038473
      px      :     0.023143
      py      :     0.007138

 13 H s       :     0.893193  s :     0.893193
      pz      :     0.014677  p :     0.038675
      px      :     0.012557
      py      :     0.011440

 14 H s       :     0.894576  s :     0.894576
      pz      :     0.008306  p :     0.038469
      px      :     0.022878
      py      :     0.007285

 15 H s       :     0.876701  s :     0.876701
      pz      :     0.006677  p :     0.040165
      px      :     0.008229
      py      :     0.025259

 16 H s       :     0.794292  s :     0.794292
      pz      :     0.023760  p :     0.077133
      px      :     0.037551
      py      :     0.015821

 17 H s       :     0.798925  s :     0.798925
      pz      :     0.033123  p :     0.077307
      px      :     0.026600
      py      :     0.017585

 18 H s       :     0.700333  s :     0.700333
      pz      :     0.045690  p :     0.113973
      px      :     0.046762
      py      :     0.021522


---------------------------------
LOEWDIN BOND ORDERS (THRESH 0.050000)
---------------------------------
B(  0-O ,  1-O ) :   0.2044 B(  0-O ,  4-C ) :   0.0643 B(  0-O ,  7-C ) :   1.3839 
B(  0-O , 18-H ) :   0.9857 B(  1-O ,  4-C ) :   0.0847 B(  1-O ,  7-C ) :   2.2159 
B(  2-N ,  3-C ) :   0.0506 B(  2-N ,  4-C ) :   1.1409 B(  2-N ,  7-C ) :   0.0541 
B(  2-N , 16-H ) :   0.9853 B(  2-N , 17-H ) :   0.9857 B(  3-C ,  4-C ) :   0.9849 
B(  3-C ,  5-C ) :   1.0594 B(  3-C ,  6-C ) :   1.0583 B(  3-C ,  8-H ) :   0.9053 
B(  4-C ,  7-C ) :   0.9874 B(  4-C ,  9-H ) :   0.8976 B(  5-C , 10-H ) :   0.9579 
B(  5-C , 11-H ) :   0.9556 B(  5-C , 12-H ) :   0.9562 B(  6-C , 13-H ) :   0.9561 
B(  6-C , 14-H ) :   0.9581 B(  6-C , 15-H ) :   0.9530 B(  7-C , 18-H ) :   0.0568 


------------------------------------------
LOEWDIN REDUCED ORBITAL POPULATIONS PER MO
-------------------------------------------
THRESHOLD FOR PRINTING IS 0.1%%
                      0         1         2         3         4         5   
                 -19.19073 -19.12741 -14.31219 -10.30790 -10.21888 -10.18964
                   2.00000   2.00000   2.00000   2.00000   2.00000   2.00000
                  --------  --------  --------  --------  --------  --------
 0 O  s              99.9       0.0       0.0       0.0       0.0       0.0
 0 O  py              0.0       0.0       0.0       0.2       0.0       0.0
 1 O  s               0.0      99.8       0.0       0.1       0.0       0.0
 1 O  pz              0.0       0.0       0.0       0.2       0.0       0.0
 1 O  py              0.0       0.0       0.0       0.1       0.0       0.0
 2 N  s               0.0       0.0      99.7       0.0       0.0       0.0
 2 N  py              0.0       0.0       0.0       0.0       0.2       0.0
 3 C  s               0.0       0.0       0.0       0.0       0.0      99.5
 3 C  px              0.0       0.0       0.0       0.0       0.1       0.0
 4 C  s               0.0       0.0       0.0       0.0      99.4       0.0
 4 C  px              0.0       0.0       0.0       0.1       0.0       0.1
 5 C  py              0.0       0.0       0.0       0.0       0.0       0.1
 6 C  pz              0.0       0.0       0.0       0.0       0.0       0.1
 7 C  s               0.0       0.0       0.0      98.9       0.0       0.0

                      6         7         8         9        10        11   
                 -10.16605 -10.15798  -1.10032  -1.00384  -0.89095  -0.78975
                   2.00000   2.00000   2.00000   2.00000   2.00000   2.00000
                  --------  --------  --------  --------  --------  --------
 0 O  s               0.0       0.0      42.2      18.0       0.0       0.2
 0 O  pz              0.0       0.0       0.6       0.1       0.1       0.1
 0 O  px              0.0       0.0       0.1       0.1       0.1       0.2
 0 O  py              0.0       0.0       2.2       0.3       0.0       0.1
 1 O  s               0.0       0.0      13.1      41.7       1.1       0.1
 1 O  pz              0.0       0.0       1.0       1.6       0.0       0.0
 1 O  px              0.0       0.0       0.5       0.9       0.0       0.0
 1 O  py              0.0       0.0       1.3       0.9       0.1       0.0
 2 N  s               0.0       0.0       0.1       0.2      38.1       7.3
 2 N  pz              0.0       0.0       0.0       0.0       0.6       0.7
 2 N  px              0.0       0.0       0.0       0.0       0.0       0.2
 2 N  py              0.0       0.0       0.1       0.1       2.0       0.4
 3 C  s               0.0       0.0       0.1       0.0       3.6      24.0
 3 C  pz              0.0       0.1       0.0       0.0       0.2       0.4
 3 C  px              0.0       0.0       0.1       0.0       1.2       0.0
 3 C  py              0.1       0.0       0.0       0.0       0.2       0.6
 4 C  s               0.0       0.0       0.9       0.3      16.8       2.5
 4 C  pz              0.0       0.0       0.6       0.2       0.1       1.4
 4 C  px              0.0       0.0       0.8       0.2       0.0       2.8
 4 C  py              0.0       0.0       0.2       0.1       4.8       3.9
 4 C  dz2             0.0       0.0       0.0       0.0       0.1       0.0
 4 C  dx2y2           0.0       0.0       0.0       0.0       0.2       0.2
 5 C  s              99.6       0.0       0.0       0.0       0.5      12.7
 5 C  px              0.0       0.0       0.0       0.0       0.1       0.2
 5 C  py              0.0       0.0       0.0       0.0       0.3       2.5
 6 C  s               0.0      99.6       0.0       0.0       0.5      10.4
 6 C  pz              0.0       0.0       0.0       0.0       0.4       2.1
 6 C  py              0.0       0.0       0.0       0.0       0.0       0.6
 7 C  s               0.0       0.0      19.1       4.3       0.4       0.4
 7 C  pz              0.0       0.0       0.7       6.0       2.1       0.2
 7 C  px              0.0       0.0       1.7       1.7       2.2       1.2
 7 C  py              0.0       0.0       2.8      16.8       0.3       0.0
 7 C  dz2             0.0       0.0       0.1       0.2       0.0       0.0
 7 C  dxz             0.0       0.0       0.1       0.5       0.0       0.0
 7 C  dyz             0.0       0.0       0.2       0.5       0.1       0.0
 7 C  dx2y2           0.0       0.0       0.6       0.2       0.0       0.0
 7 C  dxy             0.0       0.0       0.0       0.7       0.0       0.0
 8 H  s               0.0       0.0       0.0       0.0       0.7       4.4
 8 H  px              0.0       0.0       0.0       0.0       0.0       0.1
 9 H  s               0.0       0.0       0.2       0.0       2.5       0.6
10 H  s               0.1       0.0       0.0       0.0       0.1       2.3
10 H  pz              0.0       0.0       0.0       0.0       0.0       0.1
11 H  s               0.1       0.0       0.0       0.0       0.1       2.5
12 H  s               0.1       0.0       0.0       0.0       0.1       2.4
12 H  px              0.0       0.0       0.0       0.0       0.0       0.1
13 H  s               0.0       0.1       0.0       0.0       0.1       2.0
14 H  s               0.0       0.1       0.0       0.0       0.1       2.0
15 H  s               0.0       0.1       0.0       0.0       0.1       1.6
16 H  s               0.0       0.0       0.0       0.1       8.5       2.5
16 H  pz              0.0       0.0       0.0       0.0       0.1       0.0
16 H  px              0.0       0.0       0.0       0.0       0.8       0.2
17 H  s               0.0       0.0       0.0       0.0       8.9       2.1
17 H  pz              0.0       0.0       0.0       0.0       0.4       0.1
17 H  px              0.0       0.0       0.0       0.0       0.5       0.2
17 H  py              0.0       0.0       0.0       0.0       0.1       0.0
18 H  s               0.0       0.0       8.5       3.2       0.1       0.2
18 H  pz              0.0       0.0       0.6       0.3       0.0       0.0
18 H  px              0.0       0.0       0.7       0.3       0.0       0.0
18 H  py              0.0       0.0       0.2       0.1       0.0       0.0

                     12        13        14        15        16        17   
                  -0.70264  -0.67579  -0.61263  -0.55940  -0.49452  -0.48122
                   2.00000   2.00000   2.00000   2.00000   2.00000   2.00000
                  --------  --------  --------  --------  --------  --------
 0 O  s               0.9       0.0       0.3       0.2       0.1       0.4
 0 O  pz              2.0       0.0       2.5       0.7       1.8       7.0
 0 O  px              3.8       0.0       6.3       3.6       0.4       0.9
 0 O  py              6.0       0.0      13.6      15.0       0.3       0.2
 0 O  dx2y2           0.1       0.0       0.2       0.2       0.0       0.0
 1 O  s               1.6       0.1       0.9       0.0       4.6       1.4
 1 O  pz              0.5       0.0       0.3       0.2       4.2       0.1
 1 O  px              0.4       0.0       0.1       0.4       5.2       3.9
 1 O  py              0.1       0.0       0.3       1.5       0.3       2.8
 1 O  dxz             0.0       0.0       0.0       0.0       0.1       0.0
 2 N  s               4.3       0.1       1.0       0.3       0.3       0.2
 2 N  pz              1.1       0.1       0.6       1.7       2.4       0.4
 2 N  px              0.0       0.0       1.5       2.5       9.5      18.3
 2 N  py              2.8       0.0       2.5       3.8       0.3       0.1
 2 N  dxz             0.0       0.0       0.0       0.0       0.1       0.2
 2 N  dx2y2           0.1       0.0       0.1       0.1       0.0       0.0
 3 C  s               0.9       0.1       4.7       6.5       2.6       0.8
 3 C  pz              1.5       4.9       5.0       1.8       1.8       0.5
 3 C  px              4.2       0.1       1.1       1.6       0.7       8.4
 3 C  py              0.1       9.2       1.9       1.0       0.0       0.1
 3 C  dz2             0.0       0.2       0.0       0.0       0.0       0.0
 3 C  dx2y2           0.1       0.1       0.1       0.0       0.0       0.0
 4 C  s              12.1       0.0       4.2       3.4       1.3       0.0
 4 C  pz              0.5       0.4       0.3       0.0      17.3       5.7
 4 C  px              2.8       0.0       7.0       6.3       1.9       3.9
 4 C  py              4.3       0.1       0.0       0.1       1.7       1.9
 4 C  dxz             0.1       0.0       0.1       0.0       0.0       0.0
 5 C  s               3.6      22.4       3.6       1.7       0.1       0.2
 5 C  pz              0.1       0.2       0.3       0.1       0.9       0.3
 5 C  px              0.2       0.0       0.2       0.0       0.1       1.0
 5 C  py              0.0       0.5       1.9       4.1       2.0       3.7
 6 C  s               5.1      21.7       4.3       1.8       1.2       0.0
 6 C  pz              0.0       0.1       2.1       3.7       4.9       0.2
 6 C  px              0.1       0.0       0.1       0.1       0.2       4.2
 6 C  py              0.0       0.3       0.0       0.0       1.0       0.0
 7 C  s               7.9       0.0       3.6       0.2       2.1       0.4
 7 C  pz              6.3       0.0       0.7       1.1       0.0       6.6
 7 C  px              5.5       0.1       0.0       2.0       1.8       3.2
 7 C  py              0.1       0.0       2.7       8.0       2.5       0.4
 7 C  dx2y2           0.0       0.0       0.1       0.1       0.0       0.0
 8 H  s               0.4       0.0       3.0       6.7       0.5       2.7
 8 H  pz              0.0       0.0       0.0       0.1       0.0       0.1
 8 H  px              0.0       0.0       0.1       0.1       0.0       0.0
 9 H  s               3.8       0.1       1.2       1.2      11.3       3.4
 9 H  pz              0.2       0.0       0.0       0.0       0.2       0.1
 9 H  py              0.0       0.0       0.0       0.0       0.1       0.0
10 H  s               0.7       7.1       1.0       1.0       1.3       0.2
10 H  pz              0.0       0.4       0.1       0.1       0.0       0.0
11 H  s               0.8       5.8       2.0       2.0       0.1       2.3
11 H  pz              0.0       0.1       0.0       0.0       0.0       0.0
11 H  px              0.0       0.1       0.0       0.0       0.0       0.0
12 H  s               1.2       6.0       1.9       1.0       0.0       0.0
12 H  px              0.1       0.3       0.1       0.1       0.0       0.0
13 H  s               1.1       5.6       2.3       1.9       1.0       0.7
13 H  pz              0.0       0.1       0.0       0.0       0.0       0.0
13 H  px              0.0       0.1       0.0       0.0       0.0       0.0
13 H  py              0.0       0.1       0.0       0.0       0.0       0.0
14 H  s               1.5       5.6       2.2       1.0       1.5       1.3
14 H  px              0.1       0.3       0.1       0.1       0.1       0.0
15 H  s               1.1       6.3       1.2       1.0       1.4       0.2
15 H  py              0.1       0.4       0.1       0.1       0.1       0.0
16 H  s               1.7       0.1       2.0       0.0       3.3       6.8
16 H  pz              0.0       0.0       0.0       0.0       0.1       0.1
16 H  px              0.2       0.0       0.1       0.0       0.1       0.1
17 H  s               2.5       0.1       0.3       3.2       2.6       3.3
17 H  pz              0.1       0.0       0.0       0.1       0.0       0.2
17 H  px              0.2       0.0       0.1       0.1       0.0       0.0
18 H  s               3.7       0.0       6.4       4.7       0.6       0.1
18 H  pz              0.2       0.0       0.3       0.2       0.0       0.0
18 H  px              0.2       0.0       0.2       0.1       0.0       0.0

                     18        19        20        21        22        23   
                  -0.47429  -0.45395  -0.42926  -0.42363  -0.41024  -0.38648
                   2.00000   2.00000   2.00000   2.00000   2.00000   2.00000
                  --------  --------  --------  --------  --------  --------
 0 O  s               3.2       3.6       0.7       0.1       0.0       2.5
 0 O  pz              3.2      12.8       5.6       1.2      11.0       4.3
 0 O  px             11.8       2.9       0.3       3.1      11.7       9.6
 0 O  py              8.0       1.1       7.5       0.9       1.2       4.0
 0 O  dxz             0.0       0.1       0.0       0.0       0.0       0.1
 0 O  dxy             0.0       0.0       0.0       0.0       0.1       0.1
 1 O  s               6.6       1.8       2.2       0.3       0.1       2.2
 1 O  pz              8.7       0.2      12.0       0.1       6.0       6.2
 1 O  px              0.1       0.5       5.3       4.1       4.8       3.7
 1 O  py              8.8       6.6       0.0       0.1       0.1       5.9
 1 O  dz2             0.0       0.0       0.1       0.0       0.1       0.0
 1 O  dxz             0.0       0.0       0.1       0.0       0.0       0.0
 1 O  dyz             0.2       0.0       0.0       0.0       0.0       0.1
 2 N  s               0.1       0.2       0.1       0.0       0.1       0.0
 2 N  pz              0.6       5.9       5.4       0.0       0.4       0.5
 2 N  px              1.1       4.2      11.6       3.7       0.1       0.9
 2 N  py              5.5       4.7       8.5       2.2       0.9       6.1
 2 N  dz2             0.0       0.0       0.1       0.0       0.0       0.0
 2 N  dxz             0.0       0.0       0.3       0.1       0.0       0.0
 2 N  dx2y2           0.1       0.1       0.1       0.1       0.0       0.0
 3 C  s               0.4       0.1       0.0       0.1       0.4       0.0
 3 C  pz              1.1       0.0       0.0       8.6       0.1       0.5
 3 C  px              3.0       2.4       1.0       0.0       5.6       0.1
 3 C  py              1.5       5.6       0.3       2.1       0.0       0.2
 4 C  s               0.3       0.1       0.4       0.2       0.3       0.2
 4 C  pz              2.4       2.9       0.2       0.5       1.6       3.9
 4 C  px              0.3       0.2       1.2       0.2       1.5       1.3
 4 C  py              3.7      10.5       5.1       1.0       0.0       4.4
 4 C  dz2             0.0       0.1       0.1       0.0       0.1       0.0
 4 C  dxz             0.0       0.0       0.2       0.0       0.1       0.0
 4 C  dx2y2           0.0       0.0       0.2       0.1       0.1       0.1
 4 C  dxy             0.0       0.1       0.2       0.0       0.0       0.1
 5 C  s               0.2       0.2       0.0       0.0       0.1       0.0
 5 C  pz              0.7       0.0       0.1      22.3       1.5       0.2
 5 C  px              4.8       4.1       0.1       0.0       8.7      11.4
 5 C  py              0.4       2.0       0.5       1.3       1.0       0.0
 5 C  dz2             0.0       0.0       0.0       0.1       0.1       0.0
 6 C  s               0.1       0.1       0.0       0.1       0.1       0.0
 6 C  pz              0.1       1.3       0.1       0.8       0.2       0.8
 6 C  px              2.0       0.4       1.2       0.0       8.8       1.5
 6 C  py              1.1       2.5       0.0      14.4       1.5       1.4
 7 C  s               1.4       0.2       1.7       0.1       0.0       0.4
 7 C  pz              0.5       2.2       2.4       1.7       4.8       4.5
 7 C  px              7.1       0.2       0.3       2.4       8.4       3.1
 7 C  py              0.0       0.4       7.8       0.1       0.3       0.8
 7 C  dz2             0.0       0.1       0.0       0.0       0.2       0.0
 7 C  dyz             0.1       0.1       0.1       0.0       0.1       0.2
 7 C  dx2y2           0.0       0.2       0.1       0.0       0.1       0.2
 7 C  dxy             0.2       0.0       0.1       0.0       0.0       0.3
 8 H  s               1.1       1.6       0.2       2.5       0.7       0.1
 9 H  s               0.2       5.0       0.2       0.0       1.0       0.1
 9 H  pz              0.0       0.1       0.0       0.0       0.0       0.0
10 H  s               0.6       0.2       0.0      11.3       2.1       0.0
10 H  pz              0.0       0.0       0.0       0.2       0.1       0.0
11 H  s               0.6       0.0       0.3       1.7       0.9       3.3
12 H  s               2.0       2.7       0.0       0.6       4.5       5.7
13 H  s               0.3       1.9       0.1       0.3       0.2       0.2
14 H  s               1.0       0.0       0.6       0.0       4.7       1.1
15 H  s               0.3       0.6       0.1       6.9       2.1       1.1
[...]
  1 O      8.4262     8.0000    -0.4262     2.0924     2.0924    -0.0000
  2 N      7.5561     7.0000    -0.5561     2.8534     2.8534     0.0000
  3 C      6.0565     6.0000    -0.0565     3.9308     3.9308    -0.0000
  4 C      6.0064     6.0000    -0.0064     3.8278     3.8278     0.0000
  5 C      6.3033     6.0000    -0.3033     3.8840     3.8840    -0.0000
  6 C      6.3055     6.0000    -0.3055     3.8792     3.8792    -0.0000
  7 C      5.4731     6.0000     0.5269     3.9553     3.9553     0.0000
  8 H      0.9141     1.0000     0.0859     0.9513     0.9513    -0.0000
  9 H      0.9078     1.0000     0.0922     0.9504     0.9504     0.0000
 10 H      0.9056     1.0000     0.0944     0.9590     0.9590     0.0000
 11 H      0.8896     1.0000     0.1104     0.9668     0.9668     0.0000
 12 H      0.9014     1.0000     0.0986     0.9564     0.9564     0.0000
 13 H      0.8987     1.0000     0.1013     0.9629     0.9629    -0.0000
 14 H      0.9082     1.0000     0.0918     0.9567     0.9567    -0.0000
 15 H      0.8664     1.0000     0.1336     0.9618     0.9618    -0.0000
 16 H      0.7609     1.0000     0.2391     0.9217     0.9217     0.0000
 17 H      0.7679     1.0000     0.2321     0.9237     0.9237     0.0000
 18 H      0.6779     1.0000     0.3221     0.9154     0.9154     0.0000

  Mayer bond orders larger than 0.100000
B(  0-O ,  7-C ) :   1.0732 B(  0-O , 18-H ) :   0.8521 B(  1-O ,  7-C ) :   1.9242 
B(  2-N ,  4-C ) :   1.0019 B(  2-N , 16-H ) :   0.9076 B(  2-N , 17-H ) :   0.9075 
B(  3-C ,  4-C ) :   0.9653 B(  3-C ,  5-C ) :   1.0040 B(  3-C ,  6-C ) :   1.0109 
B(  3-C ,  8-H ) :   0.9425 B(  4-C ,  7-C ) :   0.9241 B(  4-C ,  9-H ) :   0.9276 
B(  5-C , 10-H ) :   0.9615 B(  5-C , 11-H ) :   0.9566 B(  5-C , 12-H ) :   0.9609 
B(  6-C , 13-H ) :   0.9585 B(  6-C , 14-H ) :   0.9610 B(  6-C , 15-H ) :   0.9519 


-------
TIMINGS
-------

Total SCF time: 0 days 0 hours 0 min 37 sec 

Total time                  ....      37.678 sec
Sum of individual times     ....      35.810 sec  ( 95.0%)

SCF preparation             ....       0.383 sec  (  1.0%)
Fock matrix formation       ....      34.981 sec  ( 92.8%)
  Startup                   ....       0.007 sec  (  0.0% of F)
  Split-RI-J                ....       2.858 sec  (  8.2% of F)
  Chain of spheres X        ....      27.851 sec  ( 79.6% of F)
  XC integration            ....       6.005 sec  ( 17.2% of F)
    XC Preparation          ....       0.000 sec  (  0.0% of XC)
    Basis function eval.    ....       2.324 sec  ( 38.7% of XC)
    Density eval.           ....       1.361 sec  ( 22.7% of XC)
    XC-Functional eval.     ....       0.336 sec  (  5.6% of XC)
    XC-Potential eval.      ....       1.500 sec  ( 25.0% of XC)
Diagonalization             ....       0.000 sec  (  0.0%)
Density matrix formation    ....       0.032 sec  (  0.1%)
Total Energy calculation    ....       0.015 sec  (  0.0%)
Population analysis         ....       0.191 sec  (  0.5%)
Orbital Transformation      ....       0.021 sec  (  0.1%)
Orbital Orthonormalization  ....       0.000 sec  (  0.0%)
DIIS solution               ....       0.112 sec  (  0.3%)
  MO trafo                  ....       0.000 sec  (  0.0 % of DIIS)
  Orb grad                  ....       0.000 sec  (  0.0 % of DIIS)
  Energy W gradient         ....       0.000 sec  (  0.0 % of DIIS)
  DIIS error                ....       0.025 sec  ( 22.0 % of DIIS)
  DIIS work                 ....       0.072 sec  ( 64.2 % of DIIS)
  Form Q                    ....       0.000 sec  (  0.0 % of DIIS)
  Form QpQm                 ....       0.000 sec  (  0.0 % of DIIS)
  Exp/Cayley                ....       0.000 sec  (  0.0 % of DIIS)
  Orb update                ....       0.000 sec  (  0.0 % of DIIS)
  Wake-sleep                ....       0.004 sec  (  3.7 % of DIIS)
SOSCF solution              ....       0.076 sec  (  0.2%)
  MO trafo                  ....       0.030 sec  ( 39.2 % of SOSCF)
  Orb grad                  ....       0.003 sec  (  3.6 % of SOSCF)
  Rot update                ....       0.010 sec  ( 13.6 % of SOSCF)
  Step                      ....       0.028 sec  ( 37.6 % of SOSCF)
Finished LeanSCF after  37.7 sec

Maximum memory used throughout the entire LEANSCF-calculation: 18.5 MB


-------------------------------------------------------------------------------
                          DFT DISPERSION CORRECTION                            
                                                                               
                              DFTD3 V3.1  Rev 1                                
                          USING Becke-Johnson damping                          
-------------------------------------------------------------------------------
The B3LYP functional is recognized
Active option DFTDOPT                   ...         4   

molecular C6(AA) [au] = 2705.487033 


            DFT-D V3
 parameters
 s6 scaling factor         :     1.0000 
 a1 scaling factor         :     0.3981 
 s8 scaling factor         :     1.9889 
 a2 scaling factor         :     4.4211 
 ad hoc parameters k1-k3   :    16.0000     1.3333    -4.0000 

 Edisp/kcal,au: -17.921446536288  -0.028559639918 
 E6   /kcal   :  -8.794404418 
 E8   /kcal   :  -9.127042118 
 % E8         :  50.928043669 

-------------------------   ----------------
Dispersion correction           -0.028559640
-------------------------   ----------------


-------------------------   --------------------
FINAL SINGLE POINT ENERGY      -402.168351128753
-------------------------   --------------------



           ************************************************************
           *        Program running with 2 parallel MPI-processes     *
           *              working on a common directory               *
           ************************************************************
------------------------------------------------------------------------------
                            ORCA SCF RESPONSE CALCULATION
------------------------------------------------------------------------------

GBWName                                 ... /kaggle/working/Val-2/Val_InterFrag.gbw
Number of atoms                         ...     19
Number of basis functions               ...    167
Max core memory                         ...   3000 MB

Electric field perturbation             ... YES
Quadrupolar field perturbation          ...  NO
Magnetic field perturbation (no GIAO)   ...  NO
Magnetic field perturbation (with GIAO) ...  NO
Linear momentum (velocity) perturbation ...  NO
Spin-orbit coupling perturbation        ...  NO
Choice of electric origin               ... Center of mass
Position of electric origin             ...    -0.024093     0.051160     0.006533
Choice of magnetic origin               ... GIAO
Position of magnetic origin             ...     0.000000     0.000000     0.000000
Nuclear geometric perturbations         ...  NO (  57 perturbations)
Nucleus-orbit perturbations             ...  NO (   0 perturbations)
Spin-dipole/Fermi contact perturbations ...  NO (   0 perturbations)

Total number of real perturbations      ...      3
Total number of imaginary perturbations ...      0
Total number of triplet perturbations   ...      0
Total number of SOC perturbations       ...      0

Using XC Grid                  ... (/kaggle/working/Val-2/Val_InterFrag.grid_cpscf.tmp) 
Recalculating density on grid  ... (/kaggle/working/Val-2/Val_InterFrag.grho_cpscf0.tmp) done
Calculating the xc-kernel      ... (/kaggle/working/Val-2/Val_InterFrag.fxc_cpscf0.tmp) done

                                **********************
                                * REAL PERTURBATIONS *
                                **********************



-------------------
SHARK CP-SCF DRIVER
-------------------

Dimension of the orbital basis          ...    167
Dimension of the CPSCF-problem          ...   4320
Number of operators                     ...      1
Max. number of iterations               ...    128
Convergence Tolerance                   ... 1.0e-04
Number of perturbations                 ...      3
Perturbation type                       ... REAL

----------------------------
POPLE LINEAR EQUATION SOLVER
----------------------------

  ITERATION   0:   ||err||_max =   9.1984e+00 (   1.5 sec   0/  3 done)
  ITERATION   1:   ||err||_max =   9.5507e-01 (   1.4 sec   0/  3 done)
  ITERATION   2:   ||err||_max =   2.6369e-01 (   1.4 sec   0/  3 done)
  ITERATION   3:   ||err||_max =   6.3582e-02 (   1.5 sec   0/  3 done)
  ITERATION   4:   ||err||_max =   1.8130e-02 (   1.4 sec   0/  3 done)
  ITERATION   5:   ||err||_max =   5.1165e-03 (   1.4 sec   0/  3 done)
  ITERATION   6:   ||err||_max =   1.4131e-03 (   1.4 sec   0/  3 done)
  ITERATION   7:   ||err||_max =   3.8429e-04 (   1.4 sec   0/  3 done)
  ITERATION   8:   ||err||_max =   1.0344e-04 (   1.4 sec   2/  3 done)
  ITERATION   9:   ||err||_max =   2.7529e-05 (   1.1 sec   3/  3 done)

CP-SCF equations solved in  14.1 sec
Response densities calculated in   0.0 sec

Maximum memory used throughout the entire SCFRESP-calculation: 19.9 MB


           ************************************************************
           *        Program running with 2 parallel MPI-processes     *
           *              working on a common directory               *
           ************************************************************

------------------------------------------------------------------------------
                              ORCA PROPERTY CALCULATIONS
------------------------------------------------------------------------------

GBWName                                 ... /kaggle/working/Val-2/Val_InterFrag.gbw
Number of atoms                         ...     19
Number of basis functions               ...    167
Max core memory                         ...   3000 MB

Electric properties:
Dipole moment                           ... YES
Quadrupole moment                       ...  NO
Static polarizability (Dipole/Dipole)   ... YES
Static polarizability (Dipole/Quad.)    ...  NO
Static polarizability (Quad./Quad.)     ...  NO
Static polarizability (Velocity)        ...  NO
Static hyperpolarizability              ...  NO

Atomic electric properties:
Dipole moment                           ...  NO
Quadrupole moment                       ...  NO
Static polarizability                   ...  NO

Choice of electric origin               ... Center of mass
Position of electric origin             ...    -0.024093     0.051160     0.006533

General magnetic properties:
Magnetizability                         ...  NO

EPR properties:
g-Tensor (aka g-matrix)                 ...  NO
Zero-Field splitting spin-orbit         ...  NO
Zero-field splitting spin-spin          ...  NO
Hyperfine couplings                     ...  NO (   0 nuclei)
Quadrupole couplings                    ...  NO (   0 nuclei)
Contact density                         ...  NO (   0 nuclei)

NMR properties:
Chemical shifts                         ...  NO (   0 nuclei)
Spin-rotation constants                 ...  NO (   0 nuclei)
Spin-spin couplings                     ...  NO (   0 nuclei,    0 pairs)

Choice of magnetic origin               ... GIAO
Position of magnetic origin             ...     0.000000     0.000000     0.000000

Properties with geometric perturbations:
SCF Hessian                             ...  NO
IR spectrum                             ...  NO
VCD spectrum                            ...  NO
X-ray spectroscopy properties:
SCF XES/XAS/RIXS spectra                ...  NO

SCF SOC stabilization energy            ...  NO
Diagonal Born-Oppenheimer correction    ...  NO

-------------
DIPOLE MOMENT
-------------

Method             : SCF
Type of density    : Electron Density
Multiplicity       :   1
Irrep              :   0
Energy             :  -402.1397914888341916 Eh
Basis              : AO
                                X                 Y                 Z
Electronic contribution:     -8.767896133       0.317903564       0.374201018
Nuclear contribution   :      8.999372115      -0.902290875      -1.162338867
                        -----------------------------------------
Total Dipole Moment    :      0.231475982      -0.584387311      -0.788137849
                        -----------------------------------------
Magnitude (a.u.)       :      1.008092718
Magnitude (Debye)      :      2.562368055



--------------------
Rotational spectrum 
--------------------
 
Rotational constants in cm-1:             0.079580             0.058988             0.047667 
Rotational constants in MHz :          2385.740712          1768.408821          1429.021012 

Dipole components along the rotational axes: 
x,y,z [a.u.] :     0.328738    -0.425540    -0.852701 
x,y,z [Debye]:     0.835585    -1.081636    -2.167393 

 

Dipole moment calculation done in   0.0 sec 


---------------------------------------------------
STATIC POLARIZABILITY TENSOR (Dipole/Dipole)
---------------------------------------------------

Method             : SCF
Type of density    : Electron Density
Type of derivative : Electric Field (Direction=X)
Multiplicity       :   1
Irrep              :   0
Basis              : AO

The raw cartesian tensor (atomic units):
      67.855856085        -1.041133080        -2.829020628  
      -1.041133080        67.575234806        -0.714153189  
      -2.829020628        -0.714153189        59.824049739  
diagonalized tensor: 
      58.813787685        67.283090784        69.158262162  

Orientation: 
       0.308560217         0.411492098        -0.857592471  
       0.113644755         0.879179816         0.462739367  
       0.944391583        -0.240243845         0.224515996  

Isotropic polarizability :  65.08505


Polarizability tensor calculation done in   0.0 sec 

Maximum memory used throughout the entire PROP-calculation: 9.6 MB

--------------------------------
SUGGESTED CITATIONS FOR THIS RUN
--------------------------------

Below you find a list of papers that are relevant to this ORCA run
We neither can nor want to force you to cite these papers, but we appreciate if you do
You receive ORCA, which is the product of decades of hard work by many enthusiastic individuals, for free
The only thing we kindly ask in return is that you cite our papers,
We deeply appreciate it, if you show your appreciation for ORCA by not just citing the generic ORCA reference.

Please note that relegating all ORCA citations to the supporting information does *not* help us.
SI sections are not indexed - citations you put there will not count into any citation statistics
But we need these citations in order to attract the funding resources that allow us to do what we are doing

Therefore, if you are a happy ORCA user, please consider citing a few of the papers listed below in the main body of your paper

In addition to the list printed below, the program has created the file /kaggle/working/Val-2/Val_InterFrag.bibtex that contains the list in bibtex format
You can import this file easily into all common literature databanks and citation aid programs

It goes without saying that in many instances, there are alternative algorithms to achieve similar
results as the ones you have gotten from ORCA. It is, of course, also the case that in some instances
ORCA just re-implements algorithms worked out by others. We are fully aware of that and we are also
fully appreciative of our colleagues work. Hence this citation list should not be read as indicating
that the listed papers, which are focused on our own work, are the only ones worth citing. It simply
meant to make it easier for users to cite ORCA specific papers. It is not a substitute for doing your
own literature research and citing the relevant literature in a scientifically appropriate manner.

List of essential papers. We consider these as the minimum necessary citations

  1. Neese, F.
     Software update: the ORCA program system, version 6.0
     WIRES Comput. Molec. Sci. 2025 15(1), e70019
     doi.org/10.1002/wcms.70019

List of papers to cite with high priority. The work reported in these papers was absolutely
necessary for this run to complete.
Our perspective: the developers of density functionals and basis sets usually get cited in chemistry papers
Good! But without the algorithms to do something with them, the functionals or basis sets would not do anything.
Hence, in our opinion, the algorithm design and method developments papers are equally worthy of getting cited

  1. Neese, F.
     An improvement of the resolution of the identity approximation for the formation of the Coulomb matrix
     J. Comp. Chem. 2003 24(14), 1740-1747
     doi.org/10.1002/jcc.10318
  2. Neese, F.; Wennmohs, F.; Hansen, A.; Becker, U.
     Efficient, approximate and parallel Hartree-Fock and hybrid DFT calculations. A 'chain-of-spheres' algorithm for the Hartree-Fock exchange
     Chem. Phys. 2009 356(1-3), 98-109
     doi.org/10.1016/j.chemphys.2008.10.036
  3. Grimme, S.; Antony, J.; Ehrlich, S.; Krieg, H.
     A consistent and accurate ab initio parametrization of density functional dispersion correction (DFT-D) for the 94 elements H-Pu
     J. Chem. Phys. 2010 132 , 154104
     doi.org/10.1063/1.3382344
  4. Grimme, S.; Ehrlich, S.; Goerigk, L.
     Effect of the damping function in dispersion corrected density functional theory
     J. Comput. Chem. 2011 32(7), 1456-1465
     doi.org/10.1002/jcc.21759
  5. Helmich-Paris, B.; de Souza, B.; Neese, F.; Izsák, R.
     An improved chain of spheres for exchange algorithm
     J. Chem. Phys. 2021 155(10), 104109
     doi.org/10.1063/5.0058766
  6. Neese, F.
     The SHARK Integral Generation and Digestion System
     J. Comp. Chem. 2022 44(3), 381
     doi.org/10.1002/jcc.26942

List of suggested additional citations. These are papers that are important in the 'surrounding' of 
of this run, or papers that preceded the highly important papers. If you like your results we are grateful for a citation.

  1. Izsak, R.; Neese, F.
     An overlap fitted chain of spheres exchange method
     J. Chem. Phys. 2011 135 , 144105
     doi.org/10.1063/1.3646921
  2. Izsak, R.; Hansen, A.; Neese, F.
     The resolution of identity and chain of spheres approximations for the LPNO-CCSD singles Fock term
     Molec. Phys. 2012 110 , 2413-2417
     doi.org/10.1080/00268976.2012.687466
  3. Neese, F.
     The ORCA program system
     WIRES Comput. Molec. Sci. 2012 2(1), 73-78
     doi.org/10.1002/wcms.81
  4. Izsak, R.; Neese, F.; Klopper, W.
     Robust fitting techniques in the chain of spheres approximation to the Fock exchange: The role of the complementary space
     J. Chem. Phys. 2013 139 , 
     doi.org/10.1063/1.4819264
  5. Neese, F.
     Software update: the ORCA program system, version 4.0
     WIRES Comput. Molec. Sci. 2018 8(1), 1-6
     doi.org/10.1002/wcms.1327
  6. Neese, F.; Wennmohs, F.; Becker, U.; Riplinger, C.
     The ORCA quantum chemistry program package
     J. Chem. Phys. 2020 152(22), 224108
     doi.org/10.1063/5.0004608
  7. Neese, F.
     Software update: The ORCA program system—Version 5.0
     WIRES Comput. Molec. Sci. 2022 12(1), e1606
     doi.org/10.1002/wcms.1606

List of optional additional citations

  1. Neese, F.
     Approximate second-order SCF convergence for spin unrestricted wavefunctions
     Chem. Phys. Lett. 2000 325(1-3), 93-98
     doi.org/10.1016/s0009-2614(00)00662-x

Timings for individual modules:

Sum of individual times          ...       56.239 sec (=   0.937 min)
Startup calculation              ...        2.200 sec (=   0.037 min)   3.9 %
SCF iterations                   ...       38.804 sec (=   0.647 min)  69.0 %
SCF Response                     ...       14.771 sec (=   0.246 min)  26.3 %
Property calculations            ...        0.464 sec (=   0.008 min)   0.8 %
                             ****ORCA TERMINATED NORMALLY****
TOTAL RUN TIME: 0 days 0 hours 0 minutes 56 seconds 784 msec
