
                                 *****************
                                 * O   R   C   A *
                                 *****************

                                            #,                                       
                                            ###                                      
                                            ####                                     
                                            #####                                    
                                            ######                                   
                                           ########,                                 
                                     ,,################,,,,,                         
                               ,,#################################,,                 
                          ,,##########################################,,             
                       ,#########################################, ''#####,          
                    ,#############################################,,   '####,        
                  ,##################################################,,,,####,       
                ,###########''''           ''''###############################       
              ,#####''   ,,,,##########,,,,          '''####'''          '####       
            ,##' ,,,,###########################,,,                        '##       
           ' ,,###''''                  '''############,,,                           
         ,,##''                                '''############,,,,        ,,,,,,###''
      ,#''                                            '''#######################'''  
     '                                                          ''''####''''         
             ,#######,   #######,   ,#######,      ##                                
            ,#'     '#,  ##    ##  ,#'     '#,    #''#        ,####,    ,#,          
            ##       ##  ##   ,#'  ##            #'  '#       #'       ,# #          
            ##       ##  #######   ##           ,######,      #####,      #          
            '#,     ,#'  ##    ##  '#,     ,#' ,#      #,     #,   #      #          
             '#######'   ##     ##  '#######'  #'      '#     '####' #    #          



                #########################################################
                #                        -***-                          #
                #          Department of theory and spectroscopy        #
                #                                                       #
                #                      Frank Neese                      #
                #                                                       #
                #     Directorship, Architecture, Infrastructure        #
                #                    SHARK, DRIVERS                     #
                #        Core code/Algorithms in most modules           #
                #                                                       #
                #        Max Planck Institute fuer Kohlenforschung      #
                #                Kaiser Wilhelm Platz 1                 #
                #                 D-45470 Muelheim/Ruhr                 #
                #                      Germany                          #
                #                                                       #
                #                  All rights reserved                  #
                #                        -***-                          #
                #########################################################


                         Program Version 6.1.1  -  RELEASE   -
                                (GIT: $487d211c$)
                          ($2025-11-21 10:33:24 +0100$)
                                                                         
                                  - NO-DMRG VERSION -                    
                                                                         


 With contributions from (in alphabetic order):
[Max-Planck-Institut fuer Kohlenforschung]                               
  Daniel Aravena         : Magnetic Suceptibility                        
  Michael Atanasov       : Ab Initio Ligand Field Theory (pilot matlab implementation)
  Alexander A. Auer      : GIAO ZORA, VPT2 properties, NMR spectrum      
  Ute Becker             : All parallelization in ORCA, NUMFREQ, NUMCALC 
  Giovanni Bistoni       : ED, misc. LED, open-shell LED, HFLD           
  Dmytro Bykov           : pre 5.0 version of the SCF Hessian            
  Marcos Casanova-Páez   : Triplet and SCS-CIS(D). UHF-(DLPNO)-IP/EA/STEOM-CCSD. UHF-CVS-IP/STEOM-CCSD   
  Vijay G. Chilkuri      : MRCI spin determinant printing, contributions to CSF-ICE 
  Pauline Colinet        : FMM embedding                                 
  Dipayan Datta          : RHF DLPNO-CCSD density                        
  Achintya Kumar Dutta   : EOM-CC, STEOM-CC                              
  Nicolas Foglia         : Exact transition moments, OPA infrastructure, MCD improvements    
  Dmitry Ganyushin       : Spin-Orbit,Spin-Spin,Magnetic field MRCI      
  Miquel Garcia-Rates    : C-PCM and meta-GGA Hessian, CCSD/C-PCM, Gaussian charge scheme 
  Tiago L. C. Gouveia    : GS-ROHF, GS-ROCIS                             
  Yang Guo               : DLPNO-NEVPT2, F12-NEVPT2, CIM, IAO-localization        
  Andreas Hansen         : Spin unrestricted coupled pair/coupled cluster methods 
  Ingolf Harden          : AUTO-CI MPn and infrastructure                
  Benjamin Helmich-Paris : MC-RPA, TRAH-(SCF,CASSCF), AVAS, COSX integrals, SCF dyn. polar., MC-PDFT, srDFT 
  Lee Huntington         : MR-EOM, pCC                                   
  Robert Izsak           : Overlap fitted RIJCOSX, COSX-SCS-MP3, EOM     
  Riya Kayal             : Wick's Theorem for AUTO-CI, AUTO-CI UHF-CCSDT 
  Emily Kempfer          : AUTO-CI RHF CISDT and CCSDT, approximate NEVPT4
  Christian Kollmar      : KDIIS, OOCD, Brueckner-CCSD(T), CCSD density, CASPT2, CASPT2-K, improved NEVPT2 
  Axel Koslowski         : Symmetry handling                             
  Simone Kossmann        : meta-GGA functionals, TD-DFT gradient, OOMP2, (MP2 Hessian; deprecated post 5.0) 
  Lucas Lang             : DCDCAS, Hyperfine gauge corrections, ICE-SOC+SSC
  Marvin Lechner         : AUTO-CI (C++ implementation), FIC-MRCC        
  Spencer Leger          : CASSCF response                               
  Dagmar Lenk            : GEPOL surface, SMD, ORCA-2-JSON               
  Dimitrios Liakos       : Extrapolation schemes; Compound Job, Property file
  Dimitrios Manganas     : Further ROCIS development; embedding schemes. LFT, Crystal Embedding 
  Dimitrios Pantazis     : SARC Basis sets                               
  Anastasios Papadopoulos: AUTO-CI, single reference methods and gradients 
  Taras Petrenko         : pre 6.0 DFT Hessian and TD-DFT gradient,  ECA, NRVS 
  Petra Pikulova         : Analytic Raman intensities                    
  Peter Pinski           : DLPNO-MP2, DLPNO-MP2 Gradient                 
  Shashank Vittal Rao    : ES-AILFT, MagRelax                            
  Christoph Reimann      : Effective Core Potentials                     
  Marius Retegan         : Local ZFS, SOC                                
  Christoph Riplinger    : Optimizer, TS searches, QM/MM, DLPNO-CCSD(T), (RO)-DLPNO pert. Triples 
  Michael Roemelt        : Original ROCIS implementation, recursive CI coupling coefficients
  Masaaki Saitow         : Open-shell DLPNO-CCSD energy and density      
  Barbara Sandhoefer     : DKH picture change effects                    
  Yorick L. A. Schmerwitz: GMF and freeze-and-release deltaSCF, NEB S-IDPP initial path                    
  Kantharuban Sivalingam : CASSCF convergence/infrastructure, NEVPT2, NEVPT3, NEVPT4(SD), FIC-MRCI and CEPA variants
  Bernardo de Souza      : ESD, SOC TD-DFT                               
  Georgi L. Stoychev     : AutoAux, RI-MP2 NMR, DLPNO-MP2 response, X2C  
  Van Anh Tran           : RI-MP2 g-tensors                              
  Willem Van den Heuvel  : Paramagnetic NMR                              
  Zikuan Wang            : NOTCH, Electric field optimization            
  Frank Wennmohs         : Technical directorship and infrastructure     
  Hang Xu                : AUTO-CI-Response properties                   
                                                                         
[FACCTs GmbH]                                                            
  Markus Bursch, Nicolas Foglia, Miquel Garcia-Rates, Ingolf Harden, Hagen Neugebauer, Anastasios Papadopoulos, 
  Christoph Riplinger, Bernardo de Souza, Georgi L. Stoychev                                                    
                                                                 
  APM, various basis sets, CI-OPT, improved COSX, DLPNO-Multilevel,           
  DOCKER, DRACO, updates on ESD, Fragmentator, GOAT, IRC, LR-CPCM, L-BFGS, MBIS, meta-GGA TD-DFT gradient, ML-optimized integration grids, 
  MM, NACMEs, nearIR, NEB, NEB-TS, NL-DFT gradient (VV10), 2- and 3-layer-ONIOM, interface openCOSMO-RS, QMMM,   
  Crystal-QMMM, RESP, rigid body optimization, SF, symmetry and pop. for TD-DFT, various functionals, SOLVATOR                                   
                                                                         
[Other institutions]                                                     
  V. Asgeirsson          : NEB                                           
  Christoph Bannwarth    : sTDA-DFT, sTD-DFT, PBEh-3c, B97-3c, D3        
  Giovanni Bistoni       : ETS/NOCV, ADLD/ADEX, COVALED                  
  Martin Brehm           : Molecular dynamics                            
  Ronald Cardenas        : ETS/NOCV                                      
  Martina Colucci        : COVALED                                       
  Sebastian Ehlert       : rSCAN, r2SCAN, r2SCAN-3c, D4, dhf basis sets  
  Marvin Friede          : D4 for Fr, Ra, Ac-Lr                          
  Lars Goerigk           : TD-DFT with DH, B97 family of functionals     
  Stefan Grimme          : VdW corrections, initial TS optimization, DFT functionals, gCP, sTDA/sTD-DF 
  Waldemar Hujo          : DFT-NL                                        
  H. Jonsson             : NEB                                           
  Holger Kruse           : gCP                                           
  Marcel Mueller         : wB97X-3c, vDZP basis set                      
  Hagen Neugebauer       : wr2SCAN, Native XTB                           
  Gianluca Regni         : ADLD/ADEX                                     
  Tobias Risthaus        : pre 6.0 range-separated hybrid DFT and stability analysis
  Lukas Wittmann         : regularized MP2, r2SCAN double-hybrids, wr2SCAN        
                                                                         
We gratefully acknowledge several colleagues who have allowed us to      
interface, adapt or use parts of their codes:                            
  Ed Valeev, F. Pavosevic, A. Kumar             : LibInt (2-el integral package), F12 methods 
  Garnet Chan, S. Sharma, J. Yang, R. Olivares  : DMRG                   
  Ulf Ekstrom                                   : XCFun DFT Library      
  Mihaly Kallay                                 : mrcc  (arbitrary order and MRCC methods)
  Frank Weinhold                                : gennbo (NPA and NBO analysis)           
  Simon Mueller                                 : openCOSMO-RS                            
  Christopher J. Cramer and Donald G. Truhlar   : smd solvation model                     
  S Lehtola, MJT Oliveira, MAL Marques          : LibXC Library                           
  Liviu Ungur et al                             : ANISO software                          


 Your calculation uses the libint2 library for the computation of 2-el integrals
 For citations please refer to: http://libint.valeyev.net

 Your ORCA version has been built with support for libXC version: 7.0.0
 For citations please refer to: https://libxc.gitlab.io

 This ORCA versions uses:
   CBLAS   interface :  Fast vector & matrix operations
   LAPACKE interface :  Fast linear algebra routines
   SCALAPACK package :  Parallel linear algebra routines
   Shared memory     :  Shared parallel matrices
   BLAS/LAPACK       :  OpenBLAS 0.3.29  USE64BITINT DYNAMIC_ARCH NO_AFFINITY Haswell SINGLE_THREADED
        Core in use  :  Haswell
   Copyright (c) 2011-2014, The OpenBLAS Project


  ***********************************
  * Starting time: Sat Mar 28 20:03:42 2026
  * Host name:     1f81806d2902
  * Process ID:    46
  * Working dir.:  /kaggle/working
  ***********************************

NOTE: MaxCore=3000 MB was set to SCF,MP2,MDCI,CIPSI,MRCI,RASCI and CIS
      => If you want to overwrite this, your respective input block should be placed after the MaxCore statement
Your calculation utilizes the atom-pairwise dispersion correction
with the Becke-Johnson damping scheme (D3BJ)


Your calculation utilizes the SMD solvation module
Please cite in your paper:
Marenich, A. V.; Cramer, C. J.; Truhlar, D. G. J. Phys. Chem. B 2009, 113, 6378 

Warning: RI is on but no J-basis has been assigned. Assigning Def2/J (nothing to worry about!)
================================================================================

----- Orbital basis set information -----
Your calculation utilizes the basis: 6-31G(d,p)
   H-He, Li-Ne : W. J. Hehre, R. Ditchfield and J.A. Pople, J. Chem. Phys. 56, 2257 (1972).
                 Note: He and Ne are unpublished basis sets taken from the Gaussian program.
                 Note: Li and B from J. D. Dill and J. A. Pople, J. Chem. Phys. 62, 2921 (1975).
   Na - Ar     : M. M. Francl, W. J. Pietro, W. J. Hehre, J. S. Binkley, M. S. Gordon, 
                 D. J. DeFrees and J. A. Pople, J. Chem. Phys. 77, 3654 (1982).
   K - Zn      : V. A. Rassolov, J. A. Pople, M. A. Ratner, and T. L. Windus, J. Chem. Phys. 109, 1223 (1998).

----- AuxJ basis set information -----
Your calculation utilizes the auxiliary basis: def2/J
   H-Rn: F. Weigend, Phys. Chem. Chem. Phys. 8, 1057 (2006).
   Fr-Lr: K. Eichkorn, F. Weigend, O. Treutler, R. Ahlrichs; Theor. Chem. Acc. 97, 119 (1997).

================================================================================
                                        WARNINGS
                       Please study these warnings very carefully!
================================================================================


WARNING: Geometry Optimization
  ===> : Switching off AutoStart
         For restart on a previous wavefunction, please use MOREAD

================================================================================
                                       INPUT FILE
================================================================================
NAME = /kaggle/working/Val-1/Val_InterFrag.inp
|  1> 
|  2> !RKS B3LYP 6-31G(d,p) TightSCF Opt D3BJ
|  3>  
|  4> %pal nprocs 2 end
|  5> %maxcore 3000
|  6> 
|  7> %cpcm
|  8>   smd true
|  9>   SMDsolvent "WATER"
| 10>   end
| 11> 
| 12> %scf
| 13>   MaxIter 1000
| 14>   SOSCF Start 0.00033
| 15>   end
| 16> end
| 17> 
| 18> %output
| 19>   PrintLevel Normal
| 20>   Print[ P_OrbEn ] 2        # print ALL orbital energies (not just up to LUMO+9) :contentReference[oaicite:10]{index=10}
| 21>   XYZFile true              # writes basename.xyz (handy for reuse) :contentReference[oaicite:11]{index=11}
| 22>   end
| 23> 
| 24> *xyz 0 1
| 25> O       -1.545000000     -1.473300000     -0.263400000
| 26> O       -1.730800000      0.376300000      1.030100000
| 27> N       -0.256100000      1.767300000     -0.856900000
| 28> C        1.380400000      0.013000000     -0.230700000
| 29> C       -0.046400000      0.324300000     -0.744500000
| 30> C        1.731800000     -1.477400000     -0.162600000
| 31> C        1.651800000      0.683800000      1.120000000
| 32> C       -1.185800000     -0.213900000      0.108000000
| 33> H        2.084300000      0.457100000     -0.949500000
| 34> H       -0.159200000     -0.097100000     -1.751600000
| 35> H        1.556700000     -1.958500000     -1.130400000
| 36> H        1.128800000     -1.994800000      0.590500000
| 37> H        2.786600000     -1.616800000      0.096700000
| 38> H        0.988600000      0.297000000      1.900700000
| 39> H        2.682400000      0.493100000      1.440300000
| 40> H        1.528700000      1.770100000      1.071700000
| 41> H       -1.141500000      1.950700000     -1.327900000
| 42> H        0.467900000      2.174100000     -1.448100000
| 43> H       -2.274800000     -1.822800000      0.291200000
| 44> *
| 45> 
| 46>                          ****END OF INPUT****
================================================================================

                       *****************************
                       * Geometry Optimization Run *
                       *****************************

Geometry optimization settings:
Update method            Update   .... BFGS
Choice of coordinates    CoordSys .... (2022) Redundant Internals
Initial Hessian          InHess   .... Almloef's Model
Max. no of cycles        MaxIter  .... 57

Convergence Tolerances:
Energy Change            TolE     ....  5.0000e-06 Eh
Max. Gradient            TolMAXG  ....  3.0000e-04 Eh/bohr
RMS Gradient             TolRMSG  ....  1.0000e-04 Eh/bohr
Max. Displacement        TolMAXD  ....  4.0000e-03 bohr
RMS Displacement         TolRMSD  ....  2.0000e-03 bohr
Strict Convergence                .... False

------------------------------------------------------------------------------
                        ORCA OPTIMIZATION COORDINATE SETUP
------------------------------------------------------------------------------

The optimization will be done in redundant internal coordinates (2022)
Making redundant internal coordinates   ...  (2022 redundants) done
Evaluating the initial hessian          ...  (Almloef) done
Evaluating the coordinates              ...  done
Calculating the B-matrix                .... done
Calculating the G-matrix                .... done
The number of degrees of freedom        ....   79

    -----------------------------------------------------------------
                    Redundant Internal Coordinates


    -----------------------------------------------------------------
         Definition                    Initial Value    Approx d2E/dq
    -----------------------------------------------------------------
      1. B(C   4,N   2)                  1.4625         0.428779   
      2. B(C   4,C   3)                  1.5481         0.349525   
      3. B(C   5,C   3)                  1.5328         0.369780   
      4. B(C   6,C   3)                  1.5323         0.370397   
      5. B(C   7,O   1)                  1.2230         1.033661   
      6. B(C   7,C   4)                  1.5214         0.385570   
      7. B(C   7,O   0)                  1.3613         0.621892   
      8. B(H   8,C   3)                  1.0997         0.347475   
      9. B(H   9,C   4)                  1.0975         0.350287   
     10. B(H  10,C   5)                  1.0949         0.353707   
     11. B(H  11,C   5)                  1.0947         0.353875   
     12. B(H  12,C   5)                  1.0951         0.353400   
     13. B(H  13,C   6)                  1.0950         0.353596   
     14. B(H  14,C   6)                  1.0959         0.352321   
     15. B(H  15,C   6)                  1.0943         0.354432   
     16. B(H  16,N   2)                  1.0195         0.417845   
     17. B(H  17,N   2)                  1.0194         0.418018   
     18. B(H  18,O   0)                  0.9810         0.481371   
     19. A(C   7,O   0,H  18)          111.8187         0.365443   
     20. A(C   4,N   2,H  17)          109.6624         0.335142   
     21. A(H  16,N   2,H  17)          106.0860         0.299914   
     22. A(C   4,N   2,H  16)          109.7261         0.335119   
     23. A(C   4,C   3,C   6)          111.5775         0.358728   
     24. A(C   6,C   3,H   8)          106.6186         0.321975   
     25. A(C   4,C   3,H   8)          106.9648         0.318936   
     26. A(C   4,C   3,C   5)          114.9332         0.358627   
     27. A(C   5,C   3,C   6)          110.2364         0.362190   
     28. A(C   5,C   3,H   8)          105.9599         0.321887   
     29. A(C   3,C   4,C   7)          115.6661         0.361191   
     30. A(N   2,C   4,H   9)          107.0724         0.328276   
     31. A(C   3,C   4,H   9)          108.7876         0.319356   
     32. A(C   7,C   4,H   9)          107.5404         0.324531   
     33. A(N   2,C   4,C   7)          106.5422         0.371731   
     34. A(N   2,C   4,C   3)          110.8586         0.365519   
     35. A(H  11,C   5,H  12)          107.9080         0.289191   
     36. A(H  10,C   5,H  12)          107.9028         0.289170   
     37. A(C   3,C   5,H  12)          110.8002         0.322780   
     38. A(H  10,C   5,H  11)          108.1987         0.289231   
     39. A(C   3,C   5,H  11)          111.3362         0.322851   
     40. A(C   3,C   5,H  10)          110.5684         0.322826   
     41. A(H  13,C   6,H  15)          108.3006         0.289288   
     42. A(C   3,C   6,H  15)          112.0694         0.323022   
     43. A(H  13,C   6,H  14)          107.4410         0.289017   
     44. A(H  14,C   6,H  15)          106.9425         0.289124   
     45. A(C   3,C   6,H  14)          110.3651         0.322706   
     46. A(C   3,C   6,H  13)          111.5038         0.322897   
     47. A(O   0,C   7,O   1)          122.3173         0.470302   
     48. A(O   1,C   7,C   4)          125.8396         0.434038   
     49. A(O   0,C   7,C   4)          111.8402         0.396555   
     50. D(C   7,C   4,N   2,H  16)    -61.9739         0.015675   
     51. D(N   2,C   4,C   3,C   5)   -176.2777         0.010000   
     52. D(C   7,C   4,C   3,C   5)     62.3131         0.010000   
     53. D(C   7,C   4,C   3,C   6)    -64.1312         0.010000   
     54. D(N   2,C   4,C   3,H   8)    -58.9655         0.010000   
     55. D(C   3,C   4,N   2,H  16)    171.3930         0.015675   
     56. D(C   7,C   4,N   2,H  17)   -178.1223         0.015675   
     57. D(C   3,C   4,N   2,H  17)     55.2446         0.015675   
     58. D(C   7,C   4,C   3,H   8)    179.6253         0.010000   
     59. D(H   9,C   4,N   2,H  16)     52.8671         0.015675   
     60. D(N   2,C   4,C   3,C   6)     57.2780         0.010000   
     61. D(H  10,C   5,C   3,H   8)    -64.0040         0.010932   
     62. D(H  10,C   5,C   3,C   6)   -178.9942         0.010932   
     63. D(H  11,C   5,C   3,C   4)    -66.4351         0.010932   
     64. D(H  10,C   5,C   3,C   4)     53.8763         0.010932   
     65. D(H  11,C   5,C   3,H   8)    175.6847         0.010932   
     66. D(H  11,C   5,C   3,C   6)     60.6944         0.010932   
     67. D(H  14,C   6,C   3,C   5)     53.9109         0.010966   
     68. D(H  14,C   6,C   3,C   4)   -177.1169         0.010966   
     69. D(H  13,C   6,C   3,H   8)   -179.9948         0.010966   
     70. D(H  13,C   6,C   3,C   5)    -65.4215         0.010966   
     71. D(H  14,C   6,C   3,H   8)    -60.6625         0.010966   
     72. D(H  13,C   6,C   3,C   4)     63.5508         0.010966   
     73. D(O   1,C   7,C   4,C   3)     90.3073         0.011074   
     74. D(O   1,C   7,C   4,N   2)    -33.3913         0.011074   
     75. D(O   0,C   7,C   4,H   9)     32.6970         0.011074   
     76. D(O   0,C   7,C   4,C   3)    -89.0807         0.011074   
     77. D(O   0,C   7,C   4,N   2)    147.2207         0.011074   
     78. D(C   4,C   7,O   0,H  18)    179.5380         0.028387   
     79. D(O   1,C   7,O   0,H  18)      0.1251         0.028387   
    -----------------------------------------------------------------

Number of atoms                         .... 19
Number of degrees of freedom            .... 79


         *************************************************************
         *                GEOMETRY OPTIMIZATION CYCLE   1            *
         *************************************************************
---------------------------------
CARTESIAN COORDINATES (ANGSTROEM)
---------------------------------
  O     -1.545000   -1.473300   -0.263400
  O     -1.730800    0.376300    1.030100
  N     -0.256100    1.767300   -0.856900
  C      1.380400    0.013000   -0.230700
  C     -0.046400    0.324300   -0.744500
  C      1.731800   -1.477400   -0.162600
  C      1.651800    0.683800    1.120000
  C     -1.185800   -0.213900    0.108000
  H      2.084300    0.457100   -0.949500
  H     -0.159200   -0.097100   -1.751600
  H      1.556700   -1.958500   -1.130400
  H      1.128800   -1.994800    0.590500
  H      2.786600   -1.616800    0.096700
  H      0.988600    0.297000    1.900700
  H      2.682400    0.493100    1.440300
  H      1.528700    1.770100    1.071700
  H     -1.141500    1.950700   -1.327900
  H      0.467900    2.174100   -1.448100
  H     -2.274800   -1.822800    0.291200

----------------------------
CARTESIAN COORDINATES (A.U.)
----------------------------
  NO LB      ZA    FRAG     MASS         X           Y           Z
   0 O     8.0000    0    15.999   -2.919627   -2.784134   -0.497754
   1 O     8.0000    0    15.999   -3.270738    0.711104    1.946607
   2 N     7.0000    0    14.007   -0.483959    3.339713   -1.619306
   3 C     6.0000    0    12.011    2.608578    0.024566   -0.435960
   4 C     6.0000    0    12.011   -0.087683    0.612838   -1.406901
   5 C     6.0000    0    12.011    3.272628   -2.791881   -0.307269
   6 C     6.0000    0    12.011    3.121450    1.292195    2.116493
   7 C     6.0000    0    12.011   -2.240837   -0.404212    0.204090
   8 H     1.0000    0     1.008    3.938756    0.863794   -1.794295
   9 H     1.0000    0     1.008   -0.300844   -0.183492   -3.310044
  10 H     1.0000    0     1.008    2.941737   -3.701029   -2.136146
  11 H     1.0000    0     1.008    2.133123   -3.769626    1.115883
  12 H     1.0000    0     1.008    5.265911   -3.055309    0.182737
  13 H     1.0000    0     1.008    1.868183    0.561249    3.591802
  14 H     1.0000    0     1.008    5.069001    0.931824    2.721773
  15 H     1.0000    0     1.008    2.888824    3.345004    2.025219
  16 H     1.0000    0     1.008   -2.157122    3.686289   -2.509367
  17 H     1.0000    0     1.008    0.884203    4.108454   -2.736512
  18 H     1.0000    0     1.008   -4.298749   -3.444593    0.550288

--------------------------------
INTERNAL COORDINATES (ANGSTROEM)
--------------------------------
 O      0   0   0     0.000000000000     0.00000000     0.00000000
 O      1   0   0     2.264659808890     0.00000000     0.00000000
 N      2   1   0     2.769546910597    88.70234509     0.00000000
 C      3   2   1     2.479481232032    79.86377697   299.97777412
 C      3   2   1     1.462483111014    61.86353875   332.83962325
 C      4   3   2     1.532779087149   148.26598949    61.52202879
 C      4   3   2     1.532325386463    91.70689328   286.60347880
 C      2   1   3     1.222959300222    30.52955703   344.39031186
 H      4   3   2     1.099715172215    88.37624076   180.02097160
 H      5   3   2     1.097520938297   107.07244589   127.75030066
 H      6   4   3     1.094876276115   110.56835356    49.97537432
 H      6   4   3     1.094747171725   111.33618694   289.66401334
 H      6   4   3     1.095112729357   110.80023280   169.56396845
 H      7   4   3     1.094961629465   111.50381957    91.19072020
 H      7   4   3     1.095944770506   110.36506327   210.52305090
 H      7   4   3     1.094319053110   112.06936336   329.59559330
 H      3   2   1     1.019514453061    86.71472388    87.30110289
 H      3   2   1     1.019401628408   166.84001128   280.51686969
 H      1   2   3     0.980989016248    84.66566336   195.72632268

---------------------------
INTERNAL COORDINATES (A.U.)
---------------------------
 O      0   0   0     0.000000000000     0.00000000     0.00000000
 O      1   0   0     4.279586825300     0.00000000     0.00000000
 N      2   1   0     5.233685176077    88.70234509     0.00000000
 C      3   2   1     4.685540482739    79.86377697   299.97777412
 C      3   2   1     2.763692555301    61.86353875   332.83962325
 C      4   3   2     2.896532698513   148.26598949    61.52202879
 C      4   3   2     2.895675328471    91.70689328   286.60347880
 C      2   1   3     2.311058150352    30.52955703   344.39031186
 H      4   3   2     2.078160500805    88.37624076   180.02097160
 H      5   3   2     2.074013999625   107.07244589   127.75030066
 H      6   4   3     2.069016312385   110.56835356    49.97537432
 H      6   4   3     2.068772340445   111.33618694   289.66401334
 H      6   4   3     2.069463144256   110.80023280   169.56396845
 H      7   4   3     2.069177606840   111.50381957    91.19072020
 H      7   4   3     2.071035474160   110.36506327   210.52305090
 H      7   4   3     2.067963313510   112.06936336   329.59559330
 H      3   2   1     1.926603105860    86.71472388    87.30110289
 H      3   2   1     1.926389898164   166.84001128   280.51686969
 H      1   2   3     1.853800581094    84.66566336   195.72632268

---------------------
BASIS SET INFORMATION
---------------------
There are 4 groups of distinct atoms

 Group   1 Type O   : 10s4p1d contracted to 3s2p1d pattern {631/31/1}
 Group   2 Type N   : 10s4p1d contracted to 3s2p1d pattern {631/31/1}
 Group   3 Type C   : 10s4p1d contracted to 3s2p1d pattern {631/31/1}
 Group   4 Type H   : 4s1p contracted to 2s1p pattern {31/1}

Atom   0O    basis set group =>   1
Atom   1O    basis set group =>   1
Atom   2N    basis set group =>   2
Atom   3C    basis set group =>   3
Atom   4C    basis set group =>   3
Atom   5C    basis set group =>   3
Atom   6C    basis set group =>   3
Atom   7C    basis set group =>   3
Atom   8H    basis set group =>   4
Atom   9H    basis set group =>   4
Atom  10H    basis set group =>   4
Atom  11H    basis set group =>   4
Atom  12H    basis set group =>   4
Atom  13H    basis set group =>   4
Atom  14H    basis set group =>   4
Atom  15H    basis set group =>   4
Atom  16H    basis set group =>   4
Atom  17H    basis set group =>   4
Atom  18H    basis set group =>   4
---------------------------------
AUXILIARY/J BASIS SET INFORMATION
---------------------------------
There are 4 groups of distinct atoms

 Group   1 Type O   : 12s5p4d2f1g contracted to 6s4p3d1f1g pattern {711111/2111/211/2/1}
 Group   2 Type N   : 12s5p4d2f1g contracted to 6s4p3d1f1g pattern {711111/2111/211/2/1}
 Group   3 Type C   : 12s5p4d2f1g contracted to 6s4p3d1f1g pattern {711111/2111/211/2/1}
 Group   4 Type H   : 5s2p1d contracted to 3s1p1d pattern {311/2/1}

Atom   0O    basis set group =>   1
Atom   1O    basis set group =>   1
Atom   2N    basis set group =>   2
Atom   3C    basis set group =>   3
Atom   4C    basis set group =>   3
Atom   5C    basis set group =>   3
Atom   6C    basis set group =>   3
Atom   7C    basis set group =>   3
Atom   8H    basis set group =>   4
Atom   9H    basis set group =>   4
Atom  10H    basis set group =>   4
Atom  11H    basis set group =>   4
Atom  12H    basis set group =>   4
Atom  13H    basis set group =>   4
Atom  14H    basis set group =>   4
Atom  15H    basis set group =>   4
Atom  16H    basis set group =>   4
Atom  17H    basis set group =>   4
Atom  18H    basis set group =>   4


           ************************************************************
           *        Program running with 2 parallel MPI-processes     *
           *              working on a common directory               *
           ************************************************************
------------------------------------------------------------------------------
                             ORCA STARTUP CALCULATIONS
                           -- RI-GTO INTEGRALS CHOSEN --
------------------------------------------------------------------------------
------------------------------------------------------------------------------
                   ___                                                        
                  /   \      - P O W E R E D   B Y -                         
                 /     \                                                     
                 |  |  |   _    _      __       _____    __    __             
                 |  |  |  | |  | |    /  \     |  _  \  |  |  /  |          
                  \  \/   | |  | |   /    \    | | | |  |  | /  /          
                 / \  \   | |__| |  /  /\  \   | |_| |  |  |/  /          
                |  |  |   |  __  | /  /__\  \  |    /   |      \           
                |  |  |   | |  | | |   __   |  |    \   |  |\   \          
                \     /   | |  | | |  |  |  |  | |\  \  |  | \   \       
                 \___/    |_|  |_| |__|  |__|  |_| \__\ |__|  \__/        
                                                                              
                      - O R C A' S   B I G   F R I E N D -                    
                                      &                                       
                       - I N T E G R A L  F E E D E R -                       
                                                                              
 v1 FN, 2020, v2 2021, v3 2022-2024                                           
------------------------------------------------------------------------------


----------------------
SHARK INTEGRAL PACKAGE
----------------------

Number of atoms                             ...     19
Number of basis functions                   ...    167
Number of shells                            ...     81
Maximum angular momentum                    ...      2
Integral batch strategy                     ... SHARK/LIBINT Hybrid
RI-J (if used) integral strategy            ... SPLIT-RIJ (Revised 2003 algorithm where possible)
Printlevel                                  ...      1
Contraction scheme used                     ... SEGMENTED contraction
Prescreening option                         ... SCHWARTZ
   Thresh                                   ... 2.500e-11
   Tcut                                     ... 2.500e-12
   Tpresel                                  ... 2.500e-12 
Coulomb Range Separation                    ... NOT USED
Exchange Range Separation                   ... NOT USED
Multipole approximations                    ... NOT USED
Finite Nucleus Model                        ... NOT USED
CABS basis                                  ... NOT available
Auxiliary Coulomb fitting basis             ... AVAILABLE
   # of basis functions in Aux-J            ...    513
   # of shells in Aux-J                     ...    175
   Maximum angular momentum in Aux-J        ...      4
Auxiliary J/K fitting basis                 ... NOT available
Auxiliary Correlation fitting basis         ... NOT available
Auxiliary 'external' fitting basis          ... NOT available

Checking pre-screening integrals            ... done (  0.0 sec) Dimension = 81
   => SHARK Basis and OBASIS are compatible. Storing Pre-screening
Shell pair information
Shell pair cut-off parameter TPreSel        ...   2.5e-12
Total number of shell pairs                 ...      3321
Shell pairs after pre-screening             ...      3107
Total number of primitive shell pairs       ...     15601
Primitive shell pairs kept                  ...      9894
          la=0 lb=0:   1007 shell pairs
          la=1 lb=0:   1149 shell pairs
          la=1 lb=1:    349 shell pairs
          la=2 lb=0:    358 shell pairs
          la=2 lb=1:    208 shell pairs
          la=2 lb=2:     36 shell pairs

Checking whether 4 symmetric matrices of dimension 167 fit in memory
:Max Core in MB      =   3000.00
 MB in use           =      7.56
 MB left             =   2992.44
 MB needed           =      0.43
 Data fit in memory  = YES
Calculating RI/J V-Matrix + Cholesky decomp.... done (  0.8 sec)
Calculating Nuclear repulsion               ... done (  0.0 sec) ENN=    407.269246244125 Eh

Diagonalization of the overlap matrix:
Smallest eigenvalue                        ... 3.438e-03
Time for diagonalization                   ...    0.029 sec
Threshold for overlap eigenvalues          ... 1.000e-07
Number of eigenvalues below threshold      ... 0
Time for construction of square roots      ...    0.004 sec
Total time needed                          ...    0.036 sec

-------------------
DFT GRID GENERATION
-------------------

General Integration Accuracy     IntAcc      ... 4.388
Radial Grid Type                 RadialGrid  ... OptM3 with GC (2021)
Angular Grid (max. ang.)         AngularGrid ... 4 (Lebedev-302)
Angular grid pruning method      GridPruning ... 4 (adaptive)
Weight generation scheme         WeightScheme... mBecke (2022)
Basis function cutoff            BFCut       ... 1.0000e-11
Integration weight cutoff        WCut        ... 1.0000e-14
Partially contracted basis set               ... off
Rotationally invariant grid construction     ... off
Angular grids for H and He will be reduced by one unit

Total number of grid points                  ...    83382
Total number of batches                      ...     1310
Average number of points per batch           ...       63
Average number of grid points per atom       ...     4389

--------------------
COSX GRID GENERATION
--------------------

GRIDX 1
-------
General Integration Accuracy     IntAcc      ... 3.816
Radial Grid Type                 RadialGrid  ... OptM3 with GC (2021)
Angular Grid (max. ang.)         AngularGrid ... 1 (Lebedev-50)
Angular grid pruning method      GridPruning ... 4 (adaptive)
Weight generation scheme         WeightScheme... mBecke (2022)
Basis function cutoff            BFCut       ... 1.0000e-11
Integration weight cutoff        WCut        ... 1.0000e-14
Partially contracted basis set               ... on
Rotationally invariant grid construction     ... off
Angular grids for H and He will be reduced by one unit

Total number of grid points                  ...    10678
Total number of batches                      ...       96
Average number of points per batch           ...      111
Average number of grid points per atom       ...      562
UseSFitting                                  ... on

GRIDX 2
-------
General Integration Accuracy     IntAcc      ... 4.020
Radial Grid Type                 RadialGrid  ... OptM3 with GC (2021)
Angular Grid (max. ang.)         AngularGrid ... 2 (Lebedev-110)
Angular grid pruning method      GridPruning ... 4 (adaptive)
Weight generation scheme         WeightScheme... mBecke (2022)
Basis function cutoff            BFCut       ... 1.0000e-11
Integration weight cutoff        WCut        ... 1.0000e-14
Partially contracted basis set               ... on
Rotationally invariant grid construction     ... off
Angular grids for H and He will be reduced by one unit

Total number of grid points                  ...    22642
Total number of batches                      ...      187
Average number of points per batch           ...      121
Average number of grid points per atom       ...     1192
UseSFitting                                  ... on

GRIDX 3
-------
General Integration Accuracy     IntAcc      ... 4.338
Radial Grid Type                 RadialGrid  ... OptM3 with GC (2021)
Angular Grid (max. ang.)         AngularGrid ... 3 (Lebedev-194)
Angular grid pruning method      GridPruning ... 4 (adaptive)
Weight generation scheme         WeightScheme... mBecke (2022)
Basis function cutoff            BFCut       ... 1.0000e-11
Integration weight cutoff        WCut        ... 1.0000e-14
Partially contracted basis set               ... on
Rotationally invariant grid construction     ... off
Angular grids for H and He will be reduced by one unit

Total number of grid points                  ...    49480
Total number of batches                      ...      396
Average number of points per batch           ...      124
Average number of grid points per atom       ...     2604
UseSFitting                                  ... on
Grids setup in   2.6 sec
Initializing property integral containers    ... done (  0.0 sec)

SHARK setup successfully completed in   4.0 seconds

Maximum memory used throughout the entire STARTUP-calculation: 28.5 MB


           ************************************************************
           *        Program running with 2 parallel MPI-processes     *
           *              working on a common directory               *
           ************************************************************
-------------------------------------------------------------------------------
                                 ORCA GUESS
                   Start orbitals & Density for SCF / CASSCF
-------------------------------------------------------------------------------

------------
SCF SETTINGS
------------
Hamiltonian:
 Density Functional     Method          .... DFT(GTOs)
 Exchange Functional    Exchange        .... B88
   X-Alpha parameter    XAlpha          ....  0.666667
   Becke's b parameter  XBeta           ....  0.004200
 Correlation Functional Correlation     .... LYP
 LDA part of GGA corr.  LDAOpt          .... VWN-5
 Gradients option       PostSCFGGA      .... off
 Hybrid DFT is turned on
   Fraction HF Exchange ScalHFX         ....  0.200000
   Scaling of DF-GGA-X  ScalDFX         ....  0.720000
   Scaling of DF-GGA-C  ScalDFC         ....  0.810000
   Scaling of DF-LDA-C  ScalLDAC        ....  1.000000
   Perturbative correction              ....  0.000000
   NL short-range parameter             ....  4.800000
 RI-approximation to the Coulomb term is turned on
   Number of AuxJ basis functions       .... 513
   RIJ-COSX (HFX calculated with COS-X)).... on


General Settings:
 Integral files         IntName         .... /kaggle/working/Val-1/Val_InterFrag
 Hartree-Fock type      HFTyp           .... RHF
 Total Charge           Charge          ....    0
 Multiplicity           Mult            ....    1
 Number of Electrons    NEL             ....   64
 Basis Dimension        Dim             ....  167
 Nuclear Repulsion      ENuc            ....    407.2692462441 Eh

Convergence Acceleration:
 AO-DIIS                CNVDIIS         .... on
   Start iteration      DIISMaxIt       ....    12
   Startup error        DIISStart       ....  0.200000
   # of expansion vecs  DIISMaxEq       ....     5
   Bias factor          DIISBfac        ....   1.050
   Max. coefficient     DIISMaxC        ....  10.000
 MO-DIIS                CNVKDIIS        .... off
 Trust-Rad. Augm. Hess. CNVTRAH         .... auto
   Auto Start mean grad. ratio tolernc. ....  1.125000
   Auto Start start iteration           ....    50
   Auto Start num. interpolation iter.  ....    10
   Max. Number of Micro iterations      ....    24
   Max. Number of Macro iterations      .... Maxiter - #DIIS iter
   Number of Davidson start vectors     ....     2
   Converg. threshold    (grad. norm)   ....   1.000e-05
   Grad. Scal. Fac. for Micro threshold ....   0.100
   Minimum threshold for Micro iter.    ....   1.000e-02
   NR start threshold (gradient norm)   ....   1.000e-04
   Initial trust radius                 ....   0.400
   Minimum AH scaling param. (alpha)    ....   1.000
   Maximum AH scaling param. (alpha)    .... 1000.000
   Quad. conv. algorithm                .... NR
   White noise on init. David. guess    .... on
   Maximum white noise                  ....   0.010
   Pseudo random numbers                .... off
   Inactive MOs                         .... canonical
   Orbital update algorithm             .... Taylor
   Preconditioner                       .... Diag
   Full preconditioner red. dimension   ....   250
 SOSCF                 CNVSOSCF           .... on
   Start iteration     SOSCFMaxIt         ....   150
   Startup grad/error  SOSCFStart         ....  0.000330
   Hessian update      SOSCFHessUp        .... L-BFGS
   Autom. constraints  SOSCFAutoConstrain .... off
 Level Shifting         CNVShift        .... on
   Level shift para.    LevelShift      ....    0.2500
   Turn off err/grad.   ShiftErr        ....    0.0010
 Zerner damping         CNVZerner       .... off
 Static damping         CNVDamp         .... on
   Fraction old density DampFac         ....    0.7000
   Max. Damping (<1)    DampMax         ....    0.9800
   Min. Damping (>=0)   DampMin         ....    0.0000
   Turn off err/grad.   DampErr         ....    0.1000

SCF Procedure:
 Maximum # iterations   MaxIter         ....  1000
 SCF integral mode      SCFMode         .... Direct
   Integral package                     .... SHARK and LIBINT hybrid scheme
 Reset frequency        DirectResetFreq ....    20
 Integral Threshold     Thresh          ....  2.500e-11 Eh
 Primitive CutOff       TCut            ....  2.500e-12 Eh

Convergence Tolerance:
 Convergence Check Mode ConvCheckMode   .... Total+1el-Energy
 Convergence forced     ConvForced      .... 0
 Energy Change          TolE            ....  1.000e-08 Eh
 1-El. energy change                    ....  1.000e-05 Eh
 Orbital Gradient       TolG            ....  1.000e-05
 Orbital Rotation angle TolX            ....  1.000e-05
 DIIS Error             TolErr          ....  5.000e-07

------------------------------
INITIAL GUESS: MODEL POTENTIAL
------------------------------
Loading Hartree-Fock densities                     ... done
Calculating cut-offs                               ... done
Initializing the effective Hamiltonian             ... done
Setting up the integral package (SHARK)            ... done
Starting the Coulomb interaction                   ... done (   0.1 sec)
Making the grid                                    ... done (   0.2 sec)
Mapping shells                                     ... done
Starting the XC term evaluation                    ... done (   0.1 sec)
  promolecular density results
     # of electrons  =     63.994197985
     EX              =    -51.935643580
     EC              =     -2.150211706
     EX+EC           =    -54.085855285
Transforming the Hamiltonian                       ... done (   0.0 sec)
Diagonalizing the Hamiltonian                      ... done (   0.0 sec)
Back transforming the eigenvectors                 ... done (   0.0 sec)
Now organizing SCF variables                       ... done
                      ------------------
                      INITIAL GUESS DONE (   0.5 sec)
                      ------------------
             **** ENERGY FILE WAS UPDATED (/kaggle/working/Val-1/Val_InterFrag.en.tmp) ****
Finished Guess after   0.8 sec
Maximum memory used throughout the entire GUESS-calculation: 11.1 MB


           ************************************************************
           *        Program running with 2 parallel MPI-processes     *
           *              working on a common directory               *
           ************************************************************

-------------------------------------------------------------------------------------------
                                      ORCA LEAN-SCF
                              memory conserving SCF solver
-------------------------------------------------------------------------------------------

--------------------
CPCM SOLVATION MODEL
--------------------
CPCM parameters:
  Epsilon                                         ...      78.3550
  Refrac                                          ...       1.3328
  Rsolv                                           ...       1.3000
  Surface type                                    ... GAUSSIAN VDW
  Discretization scheme                           ... Constant charge density
    Threshold for H atoms                         ...       5.0000 (charges/Ang^2)
    Threshold for non-H atoms                     ...       5.0000 (charges/Ang^2)
  Epsilon function type                           ...         CPCM
Solvent:                                          ... WATER
SMD-CDS solvent descriptors:
  Soln                                            ...       1.3328
  Soln25                                          ...       1.3323
  Sola                                            ...       0.0000
  Solb                                            ...       0.0000
  Solg                                            ...       0.0000
  Solc                                            ...       0.0000
  Solh                                            ...       0.0000
Radii:
  Scheme                                          ... Element-dependent radii
  Radius for O  used is    2.8724 Bohr (=   1.5200 Ang.)
  Radius for N  used is    3.5716 Bohr (=   1.8900 Ang.)
  Radius for C  used is    3.4960 Bohr (=   1.8500 Ang.)
  Radius for H  used is    2.2677 Bohr (=   1.2000 Ang.)
Calculating surface                               ...        done! (  0.0s)
Cavity surface points                             ...         1399
Cavity Volume                                     ...     857.6434
Cavity Surface-area                               ...     557.9496
Calculating surface distance matrix               ...        done! (  0.0s)
Performing Cholesky decomposition & store         ...        done! (  0.1s)
Overall time for CPCM initialization              ...                 0.2s

----------------------------------------D-I-I-S--------------------------------------------
Iteration    Energy (Eh)           Delta-E    RMSDP     MaxDP     DIISErr   Damp  Time(sec)
-------------------------------------------------------------------------------------------
               ***  Starting incremental Fock matrix formation  ***
    1    -401.8290478093431943     0.00e+00  4.86e-03  8.86e-02  2.57e-01  0.700   7.3
    2    -401.9866113271534118    -1.58e-01  3.25e-03  5.50e-02  1.17e-01  0.700   2.5
                               ***Turning on AO-DIIS***
    3    -402.0450803885432265    -5.85e-02  1.26e-03  1.60e-02  3.66e-02  0.700   2.4
    4    -402.0802777878133725    -3.52e-02  1.88e-03  2.20e-02  1.59e-02  0.000   2.2
    5    -402.1583789530452009    -7.81e-02  4.53e-04  6.49e-03  8.09e-03  0.000   2.2
    6    -402.1588860397717440    -5.07e-04  1.49e-04  2.01e-03  2.61e-03  0.000   2.1
    7    -402.1589203878846206    -3.43e-05  5.29e-05  7.39e-04  5.21e-04  0.000   1.9
               *** Restarting incremental Fock matrix formation ***
                             ****Resetting DIIS****
                              *** Initializing SOSCF ***
---------------------------------------S-O-S-C-F--------------------------------------
Iteration    Energy (Eh)           Delta-E    RMSDP     MaxDP     MaxGrad    Time(sec)
--------------------------------------------------------------------------------------
    8    -402.1588808547410849     3.95e-05  3.43e-05  4.97e-04  2.13e-04     4.2
               *** Restarting incremental Fock matrix formation ***
    9    -402.1588811118331819    -2.57e-07  1.69e-05  3.56e-04  9.48e-05     4.1
   10    -402.1588808943252502     2.18e-07  1.04e-05  1.97e-04  1.62e-04     2.7
   11    -402.1588812870920151    -3.93e-07  3.66e-06  6.95e-05  2.36e-05     2.5
   12    -402.1588812759381995     1.12e-08  2.23e-06  4.67e-05  3.15e-05     2.3
   13    -402.1588812956578636    -1.97e-08  4.78e-07  9.57e-06  2.45e-06     2.1
                  *** Gradient check signals convergence ***

               *****************************************************
               *                     SUCCESS                       *
               *           SCF CONVERGED AFTER  13 CYCLES          *
               *****************************************************

Recomputing exchange energy using gridx3       ... done (    5.951 sec)
Old exchange energy                            :    -10.591942497 Eh
New exchange energy                            :    -10.591954819 Eh
Exchange energy change after final integration :     -0.000012323 Eh
Total energy after final integration           :   -402.158893612 Eh

SMD CDS free energy correction energy :                 4.39680     Kcal/mol
Total Energy after SMD CDS correction =              -402.151886872 Eh
             **** ENERGY FILE WAS UPDATED (/kaggle/working/Val-1/Val_InterFrag.en.tmp) ****

----------------
TOTAL SCF ENERGY
----------------

Total Energy       :       -402.15188687156694 Eh          -10943.10918 eV

Components:
Nuclear Repulsion  :        407.26924624412544 Eh           11082.35961 eV
Electronic Energy  :       -809.39933371107884 Eh          -22024.87559 eV
One Electron Energy:      -1354.95004309517913 Eh          -36870.06511 eV
Two Electron Energy:        545.55070938410029 Eh           14845.18952 eV
CPCM Dielectric    :         -0.02879382255806 Eh              -0.78352 eV
SMD CDS (Gcds)     :          0.00700674048991 Eh               0.19066 eV

Virial components:
Potential Energy   :       -801.66608480253967 Eh          -21814.44319 eV
Kinetic Energy     :        399.51419793097267 Eh           10871.33401 eV
Virial Ratio       :          2.00660224080710

DFT components:
N(Alpha)           :       31.999986505414 electrons
N(Beta)            :       31.999986505414 electrons
N(Total)           :       63.999973010829 electrons
E(X)               :      -42.055543846134 Eh       
E(C)               :       -2.541262123697 Eh       
E(XC)              :      -44.596805969831 Eh       

CPCM Solvation Model Properties:
Surface-charge          :         -0.03475453941947
Corrected charge        :         -0.00000000000000
Outlying charge corr.   :          0.00009514501002 Eh               0.00259 eV
Free-energy (cav+disp)  :          0.00700674048991 Eh               0.19066 eV

---------------
SCF CONVERGENCE
---------------

  Last Energy change         ...    1.9720e-08  Tolerance :   1.0000e-08
  Last MAX-Density change    ...    9.5708e-06  Tolerance :   1.0000e-07
  Last RMS-Density change    ...    4.7767e-07  Tolerance :   5.0000e-09
  Last DIIS Error            ...    2.1304e-04  Tolerance :   5.0000e-07
  Last Orbital Gradient      ...    2.4542e-06  Tolerance :   1.0000e-05
  Last Orbital Rotation      ...    3.1588e-06  Tolerance :   1.0000e-05


----------------
ORBITAL ENERGIES
----------------

  NO   OCC          E(Eh)            E(eV) 
   0   2.0000     -19.186215      -522.0835 
   1   2.0000     -19.139631      -520.8158 
   2   2.0000     -14.300462      -389.1354 
   3   2.0000     -10.317772      -280.7608 
   4   2.0000     -10.212700      -277.9017 
   5   2.0000     -10.182818      -277.0886 
   6   2.0000     -10.158910      -276.4380 
   7   2.0000     -10.154640      -276.3218 
   8   2.0000      -1.093212       -29.7478 
   9   2.0000      -1.008950       -27.4549 
  10   2.0000      -0.882020       -24.0010 
  11   2.0000      -0.781229       -21.2583 
  12   2.0000      -0.696782       -18.9604 
  13   2.0000      -0.669891       -18.2287 
  14   2.0000      -0.607951       -16.5432 
  15   2.0000      -0.554867       -15.0987 
  16   2.0000      -0.493820       -13.4375 
  17   2.0000      -0.478853       -13.0302 
  18   2.0000      -0.473104       -12.8738 
  19   2.0000      -0.445298       -12.1172 
  20   2.0000      -0.427919       -11.6443 
  21   2.0000      -0.417091       -11.3496 
  22   2.0000      -0.409845       -11.1524 
  23   2.0000      -0.382480       -10.4078 
  24   2.0000      -0.376164       -10.2359 
  25   2.0000      -0.365926        -9.9573 
  26   2.0000      -0.327018        -8.8986 
  27   2.0000      -0.323216        -8.7952 
  28   2.0000      -0.321951        -8.7607 
  29   2.0000      -0.316859        -8.6222 
  30   2.0000      -0.275216        -7.4890 
  31   2.0000      -0.230883        -6.2827 
  32   0.0000       0.001962         0.0534 
  33   0.0000       0.090702         2.4681 
  34   0.0000       0.102073         2.7776 
  35   0.0000       0.127616         3.4726 
  36   0.0000       0.148581         4.0431 
  37   0.0000       0.158317         4.3080 
  38   0.0000       0.163877         4.4593 
  39   0.0000       0.177171         4.8211 
  40   0.0000       0.186144         5.0652 
  41   0.0000       0.200212         5.4481 
  42   0.0000       0.206792         5.6271 
  43   0.0000       0.219154         5.9635 
  44   0.0000       0.223827         6.0906 
  45   0.0000       0.240676         6.5491 
  46   0.0000       0.257417         7.0047 
  47   0.0000       0.263381         7.1670 
  48   0.0000       0.294819         8.0224 
  49   0.0000       0.340325         9.2607 
  50   0.0000       0.374852        10.2002 
  51   0.0000       0.511811        13.9271 
  52   0.0000       0.518953        14.1214 
  53   0.0000       0.522763        14.2251 
  54   0.0000       0.528124        14.3710 
  55   0.0000       0.575738        15.6666 
  56   0.0000       0.608573        16.5601 
  57   0.0000       0.614317        16.7164 
  58   0.0000       0.642822        17.4921 
  59   0.0000       0.661347        17.9962 
  60   0.0000       0.676746        18.4152 
  61   0.0000       0.687641        18.7117 
  62   0.0000       0.711014        19.3477 
  63   0.0000       0.733732        19.9659 
  64   0.0000       0.758932        20.6516 
  65   0.0000       0.763984        20.7891 
  66   0.0000       0.784513        21.3477 
  67   0.0000       0.811446        22.0806 
  68   0.0000       0.828472        22.5439 
  69   0.0000       0.855442        23.2778 
  70   0.0000       0.872200        23.7338 
  71   0.0000       0.881640        23.9907 
  72   0.0000       0.887111        24.1395 
  73   0.0000       0.898902        24.4604 
  74   0.0000       0.920114        25.0376 
  75   0.0000       0.926030        25.1985 
  76   0.0000       0.935636        25.4599 
  77   0.0000       0.943297        25.6684 
  78   0.0000       0.948875        25.8202 
  79   0.0000       0.969723        26.3875 
  80   0.0000       1.005647        27.3650 
  81   0.0000       1.018935        27.7266 
  82   0.0000       1.034659        28.1545 
  83   0.0000       1.041507        28.3408 
  84   0.0000       1.065797        29.0018 
  85   0.0000       1.129130        30.7252 
  86   0.0000       1.144013        31.1302 
  87   0.0000       1.189284        32.3621 
  88   0.0000       1.270644        34.5760 
  89   0.0000       1.347910        36.6785 
  90   0.0000       1.367544        37.2128 
  91   0.0000       1.409653        38.3586 
  92   0.0000       1.435787        39.0697 
  93   0.0000       1.460266        39.7358 
  94   0.0000       1.494721        40.6734 
  95   0.0000       1.544709        42.0337 
  96   0.0000       1.580721        43.0136 
  97   0.0000       1.596513        43.4433 
  98   0.0000       1.618058        44.0296 
  99   0.0000       1.707408        46.4609 
 100   0.0000       1.727510        47.0079 
 101   0.0000       1.735376        47.2220 
 102   0.0000       1.762470        47.9592 
 103   0.0000       1.786592        48.6156 
 104   0.0000       1.815815        49.4108 
 105   0.0000       1.824093        49.6361 
 106   0.0000       1.834775        49.9268 
 107   0.0000       1.875098        51.0240 
 108   0.0000       1.926327        52.4180 
 109   0.0000       1.927531        52.4508 
 110   0.0000       1.946378        52.9636 
 111   0.0000       1.957233        53.2590 
 112   0.0000       2.006125        54.5894 
 113   0.0000       2.023918        55.0736 
 114   0.0000       2.041754        55.5589 
 115   0.0000       2.068438        56.2851 
 116   0.0000       2.073531        56.4236 
 117   0.0000       2.106486        57.3204 
 118   0.0000       2.117580        57.6223 
 119   0.0000       2.134962        58.0953 
 120   0.0000       2.150721        58.5241 
 121   0.0000       2.158827        58.7447 
 122   0.0000       2.196481        59.7693 
 123   0.0000       2.232739        60.7559 
 124   0.0000       2.249376        61.2086 
 125   0.0000       2.289695        62.3058 
 126   0.0000       2.310176        62.8631 
 127   0.0000       2.327988        63.3478 
 128   0.0000       2.365825        64.3774 
 129   0.0000       2.379814        64.7580 
 130   0.0000       2.404986        65.4430 
 131   0.0000       2.417042        65.7711 
 132   0.0000       2.447162        66.5907 
 133   0.0000       2.506480        68.2048 
 134   0.0000       2.525117        68.7119 
 135   0.0000       2.546132        69.2838 
 136   0.0000       2.579936        70.2036 
 137   0.0000       2.613736        71.1234 
 138   0.0000       2.640949        71.8639 
 139   0.0000       2.671459        72.6941 
 140   0.0000       2.681368        72.9637 
 141   0.0000       2.709281        73.7233 
 142   0.0000       2.734997        74.4230 
 143   0.0000       2.752063        74.8874 
 144   0.0000       2.772370        75.4400 
 145   0.0000       2.803136        76.2772 
 146   0.0000       2.849107        77.5281 
 147   0.0000       2.856900        77.7402 
 148   0.0000       2.882539        78.4379 
 149   0.0000       2.909643        79.1754 
 150   0.0000       2.920573        79.4728 
 151   0.0000       2.944028        80.1111 
 152   0.0000       2.965113        80.6848 
 153   0.0000       3.019701        82.1702 
 154   0.0000       3.076581        83.7180 
 155   0.0000       3.175560        86.4114 
 156   0.0000       3.204785        87.2066 
 157   0.0000       3.251784        88.4855 
 158   0.0000       3.329122        90.5900 
 159   0.0000       3.358773        91.3969 
 160   0.0000       3.414061        92.9013 
 161   0.0000       3.441930        93.6597 
 162   0.0000       3.465692        94.3063 
 163   0.0000       3.503541        95.3362 
 164   0.0000       3.507951        95.4562 
 165   0.0000       3.522733        95.8584 
 166   0.0000       3.555381        96.7468 

                    ********************************
                    * MULLIKEN POPULATION ANALYSIS *
                    ********************************

-----------------------
MULLIKEN ATOMIC CHARGES
-----------------------
   0 O :   -0.509776
   1 O :   -0.508412
   2 N :   -0.635478
   3 C :   -0.054332
   4 C :    0.006026
   5 C :   -0.327713
   6 C :   -0.321973
   7 C :    0.570169
   8 H :    0.113283
   9 H :    0.119182
  10 H :    0.106829
  11 H :    0.109099
  12 H :    0.113957
  13 H :    0.104905
  14 H :    0.104859
  15 H :    0.105821
  16 H :    0.266110
  17 H :    0.266152
  18 H :    0.371292
Sum of atomic charges:   -0.0000000

--------------------------------
MULLIKEN REDUCED ORBITAL CHARGES
--------------------------------
  0 O s       :     3.828912  s :     3.828912
      pz      :     1.690982  p :     4.660021
      px      :     1.560878
      py      :     1.408161
      dz2     :     0.002576  d :     0.020844
      dxz     :     0.004819
      dyz     :     0.005105
      dx2y2   :     0.005242
      dxy     :     0.003102

  1 O s       :     3.848014  s :     3.848014
      pz      :     1.406759  p :     4.634774
      px      :     1.569692
      py      :     1.658323
      dz2     :     0.008129  d :     0.025624
      dxz     :     0.005198
      dyz     :     0.005540
      dx2y2   :     0.002864
      dxy     :     0.003893

  2 N s       :     3.611200  s :     3.611200
      pz      :     1.638000  p :     3.995777
      px      :     1.173933
      py      :     1.183844
      dz2     :     0.002502  d :     0.028501
      dxz     :     0.010599
      dyz     :     0.003962
      dx2y2   :     0.007701
      dxy     :     0.003737

  3 C s       :     3.209187  s :     3.209187
      pz      :     0.956886  p :     2.801886
      px      :     0.912479
      py      :     0.932521
      dz2     :     0.007727  d :     0.043259
      dxz     :     0.010041
      dyz     :     0.008693
      dx2y2   :     0.009911
      dxy     :     0.006888

  4 C s       :     3.182625  s :     3.182625
      pz      :     0.987107  p :     2.754856
      px      :     0.953915
      py      :     0.813833
      dz2     :     0.009051  d :     0.056494
      dxz     :     0.008732
      dyz     :     0.014460
      dx2y2   :     0.014434
      dxy     :     0.009817

  5 C s       :     3.242205  s :     3.242205
      pz      :     1.048016  p :     3.053802
      px      :     1.045548
      py      :     0.960238
      dz2     :     0.005926  d :     0.031706
      dxz     :     0.004416
      dyz     :     0.008331
      dx2y2   :     0.008358
      dxy     :     0.004674

  6 C s       :     3.236635  s :     3.236635
      pz      :     0.974189  p :     3.053578
      px      :     1.041341
      py      :     1.038048
      dz2     :     0.007155  d :     0.031759
      dxz     :     0.007814
      dyz     :     0.004968
      dx2y2   :     0.009738
      dxy     :     0.002085

  7 C s       :     2.999050  s :     2.999050
      pz      :     0.784535  p :     2.311574
      px      :     0.830424
      py      :     0.696614
      dz2     :     0.023557  d :     0.119207
      dxz     :     0.019795
      dyz     :     0.026875
      dx2y2   :     0.028768
      dxy     :     0.020213

  8 H s       :     0.875133  s :     0.875133
      pz      :     0.004219  p :     0.011584
      px      :     0.004204
      py      :     0.003161

  9 H s       :     0.869790  s :     0.869790
      pz      :     0.006491  p :     0.011028
      px      :     0.002014
      py      :     0.002524

 10 H s       :     0.881721  s :     0.881721
      pz      :     0.005862  p :     0.011450
      px      :     0.002482
      py      :     0.003105

 11 H s       :     0.879434  s :     0.879434
      pz      :     0.004489  p :     0.011467
      px      :     0.003724
      py      :     0.003255

 12 H s       :     0.874605  s :     0.874605
      pz      :     0.002655  p :     0.011437
      px      :     0.006595
      py      :     0.002188

 13 H s       :     0.883629  s :     0.883629
      pz      :     0.004596  p :     0.011465
      px      :     0.004016
      py      :     0.002853

 14 H s       :     0.883708  s :     0.883708
      pz      :     0.002602  p :     0.011433
      px      :     0.006319
      py      :     0.002512

 15 H s       :     0.882610  s :     0.882610
      pz      :     0.002211  p :     0.011569
      px      :     0.002559
      py      :     0.006799

 16 H s       :     0.710436  s :     0.710436
      pz      :     0.007812  p :     0.023454
      px      :     0.010833
      py      :     0.004809

 17 H s       :     0.710298  s :     0.710298
      pz      :     0.008702  p :     0.023550
      px      :     0.008702
      py      :     0.006145

 18 H s       :     0.591727  s :     0.591727
      pz      :     0.012284  p :     0.036981
      px      :     0.016345
      py      :     0.008352


------------------------
MULLIKEN OVERLAP CHARGES
------------------------
B(  0-O ,  1-O ) :  -0.1599 B(  0-O ,  4-C ) :  -0.1509 B(  0-O ,  7-C ) :   0.5978 
B(  0-O , 18-H ) :   0.5596 B(  1-O ,  4-C ) :  -0.1531 B(  1-O ,  7-C ) :   1.2027 
B(  2-N ,  3-C ) :  -0.0902 B(  2-N ,  4-C ) :   0.5897 B(  2-N ,  7-C ) :  -0.0953 
B(  2-N ,  9-H ) :  -0.1116 B(  2-N , 16-H ) :   0.6820 B(  2-N , 17-H ) :   0.6814 
B(  3-C ,  4-C ) :   0.7189 B(  3-C ,  5-C ) :   0.7490 B(  3-C ,  6-C ) :   0.7422 
B(  3-C ,  8-H ) :   0.7894 B(  3-C ,  9-H ) :  -0.0804 B(  3-C , 10-H ) :  -0.0623 
B(  3-C , 11-H ) :  -0.0666 B(  3-C , 12-H ) :  -0.0504 B(  3-C , 13-H ) :  -0.0655 
B(  3-C , 14-H ) :  -0.0613 B(  3-C , 15-H ) :  -0.0564 B(  4-C ,  5-C ) :  -0.0748 
B(  4-C ,  6-C ) :  -0.0949 B(  4-C ,  7-C ) :   0.5681 B(  4-C ,  8-H ) :  -0.0790 
B(  4-C ,  9-H ) :   0.7918 B(  4-C , 16-H ) :  -0.0664 B(  4-C , 17-H ) :  -0.0606 
B(  5-C ,  6-C ) :  -0.1042 B(  5-C ,  8-H ) :  -0.0834 B(  5-C , 10-H ) :   0.7553 
B(  5-C , 11-H ) :   0.7651 B(  5-C , 12-H ) :   0.7609 B(  6-C ,  8-H ) :  -0.0927 
B(  6-C , 13-H ) :   0.7620 B(  6-C , 14-H ) :   0.7580 B(  6-C , 15-H ) :   0.7533 
B(  7-C ,  9-H ) :  -0.1068 B( 10-H , 11-H ) :  -0.0614 B( 10-H , 12-H ) :  -0.0587 
B( 11-H , 12-H ) :  -0.0603 B( 13-H , 14-H ) :  -0.0613 B( 13-H , 15-H ) :  -0.0604 
B( 14-H , 15-H ) :  -0.0607 B( 16-H , 17-H ) :  -0.0572 


                     *******************************
                     * LOEWDIN POPULATION ANALYSIS *
                     *******************************

----------------------
LOEWDIN ATOMIC CHARGES
----------------------
   0 O :   -0.168451
   1 O :   -0.293238
   2 N :   -0.287323
   3 C :   -0.055623
   4 C :   -0.035498
   5 C :   -0.200688
   6 C :   -0.203278
   7 C :    0.169514
   8 H :    0.078568
   9 H :    0.073999
  10 H :    0.071043
  11 H :    0.069521
  12 H :    0.076643
  13 H :    0.067961
  14 H :    0.071474
  15 H :    0.069417
  16 H :    0.140014
  17 H :    0.139470
  18 H :    0.216475

-------------------------------
LOEWDIN REDUCED ORBITAL CHARGES
-------------------------------
  0 O s       :     3.477377  s :     3.477377
      pz      :     1.671654  p :     4.646168
      px      :     1.540653
      py      :     1.433862
      dz2     :     0.004836  d :     0.044906
      dxz     :     0.007911
      dyz     :     0.010460
      dx2y2   :     0.012515
      dxy     :     0.009184

  1 O s       :     3.559963  s :     3.559963
      pz      :     1.456021  p :     4.681195
      px      :     1.567372
      py      :     1.657802
      dz2     :     0.012800  d :     0.052080
      dxz     :     0.012799
      dyz     :     0.013680
      dx2y2   :     0.005713
      dxy     :     0.007088

  2 N s       :     3.200508  s :     3.200508
      pz      :     1.616755  p :     4.031156
      px      :     1.178757
      py      :     1.235644
      dz2     :     0.003801  d :     0.055659
      dxz     :     0.015647
      dyz     :     0.007463
      dx2y2   :     0.018314
      dxy     :     0.010434

  3 C s       :     2.881193  s :     2.881193
      pz      :     1.044854  p :     3.076404
      px      :     0.998320
      py      :     1.033231
      dz2     :     0.018581  d :     0.098026
      dxz     :     0.021385
      dyz     :     0.018872
      dx2y2   :     0.024419
      dxy     :     0.014770

  4 C s       :     2.881921  s :     2.881921
      pz      :     1.052458  p :     3.027341
      px      :     1.029801
      py      :     0.945083
      dz2     :     0.019140  d :     0.126236
      dxz     :     0.020409
      dyz     :     0.031412
      dx2y2   :     0.034579
      dxy     :     0.020696

  5 C s       :     2.916178  s :     2.916178
      pz      :     1.093140  p :     3.220701
      px      :     1.092344
      py      :     1.035216
      dz2     :     0.011944  d :     0.063810
      dxz     :     0.008118
      dyz     :     0.016124
      dx2y2   :     0.017936
      dxy     :     0.009688

  6 C s       :     2.915652  s :     2.915652
      pz      :     1.047107  p :     3.223479
      px      :     1.090554
      py      :     1.085818
      dz2     :     0.015373  d :     0.064147
      dxz     :     0.015301
      dyz     :     0.011099
      dx2y2   :     0.018511
      dxy     :     0.003864

  7 C s       :     2.864149  s :     2.864149
      pz      :     0.913746  p :     2.687235
      px      :     0.898836
      py      :     0.874653
      dz2     :     0.050888  d :     0.279103
      dxz     :     0.046566
      dyz     :     0.067341
      dx2y2   :     0.069547
      dxy     :     0.044762

  8 H s       :     0.883286  s :     0.883286
      pz      :     0.014208  p :     0.038146
      px      :     0.014294
      py      :     0.009644

  9 H s       :     0.885648  s :     0.885648
      pz      :     0.023881  p :     0.040353
      px      :     0.006928
      py      :     0.009545

 10 H s       :     0.890132  s :     0.890132
      pz      :     0.021138  p :     0.038825
      px      :     0.007272
      py      :     0.010415

 11 H s       :     0.891378  s :     0.891378
      pz      :     0.015621  p :     0.039101
      px      :     0.012466
      py      :     0.011014

 12 H s       :     0.884555  s :     0.884555
      pz      :     0.007886  p :     0.038803
      px      :     0.024001
      py      :     0.006916

 13 H s       :     0.892905  s :     0.892905
      pz      :     0.016371  p :     0.039134
      px      :     0.013653
      py      :     0.009110

 14 H s       :     0.889757  s :     0.889757
      pz      :     0.008395  p :     0.038769
      px      :     0.022828
      py      :     0.007546

 15 H s       :     0.890895  s :     0.890895
      pz      :     0.006892  p :     0.039688
      px      :     0.007356
      py      :     0.025441

 16 H s       :     0.781764  s :     0.781764
      pz      :     0.026699  p :     0.078221
      px      :     0.036879
      py      :     0.014643

 17 H s       :     0.781877  s :     0.781877
      pz      :     0.030576  p :     0.078653
      px      :     0.028382
      py      :     0.019695

 18 H s       :     0.670334  s :     0.670334
      pz      :     0.038454  p :     0.113191
      px      :     0.049967
      py      :     0.024770


---------------------------------
LOEWDIN BOND ORDERS (THRESH 0.050000)
---------------------------------
B(  0-O ,  1-O ) :   0.1988 B(  0-O ,  4-C ) :   0.0647 B(  0-O ,  7-C ) :   1.3972 
B(  0-O , 18-H ) :   0.9731 B(  1-O ,  4-C ) :   0.0824 B(  1-O ,  7-C ) :   2.1780 
B(  2-N ,  4-C ) :   1.1321 B(  2-N ,  7-C ) :   0.0614 B(  2-N , 16-H ) :   0.9827 
B(  2-N , 17-H ) :   0.9810 B(  3-C ,  4-C ) :   0.9945 B(  3-C ,  5-C ) :   1.0587 
B(  3-C ,  6-C ) :   1.0559 B(  3-C ,  8-H ) :   0.9032 B(  4-C ,  7-C ) :   0.9872 
B(  4-C ,  9-H ) :   0.8990 B(  5-C , 10-H ) :   0.9579 B(  5-C , 11-H ) :   0.9584 
B(  5-C , 12-H ) :   0.9554 B(  6-C , 13-H ) :   0.9577 B(  6-C , 14-H ) :   0.9563 
B(  6-C , 15-H ) :   0.9565 B(  7-C , 18-H ) :   0.0515 

------------------------------------------
LOEWDIN REDUCED ORBITAL POPULATIONS PER MO
-------------------------------------------
THRESHOLD FOR PRINTING IS 0.1%%
                      0         1         2         3         4         5   
                 -19.18622 -19.13963 -14.30046 -10.31777 -10.21270 -10.18282
                   2.00000   2.00000   2.00000   2.00000   2.00000   2.00000
                  --------  --------  --------  --------  --------  --------
 0 O  s              99.9       0.0       0.0       0.0       0.0       0.0
 0 O  py              0.0       0.0       0.0       0.2       0.0       0.0
 1 O  s               0.0      99.8       0.0       0.1       0.0       0.0
 1 O  pz              0.0       0.0       0.0       0.2       0.0       0.0
 2 N  s               0.0       0.0      99.7       0.0       0.0       0.0
 2 N  py              0.0       0.0       0.0       0.0       0.2       0.0
 3 C  s               0.0       0.0       0.0       0.0       0.0      99.5
 3 C  px              0.0       0.0       0.0       0.0       0.1       0.0
 4 C  s               0.0       0.0       0.0       0.0      99.4       0.0
 4 C  px              0.0       0.0       0.0       0.1       0.0       0.1
 5 C  py              0.0       0.0       0.0       0.0       0.0       0.1
 6 C  pz              0.0       0.0       0.0       0.0       0.0       0.1
 7 C  s               0.0       0.0       0.0      99.0       0.0       0.0

                      6         7         8         9        10        11   
                 -10.15891 -10.15464  -1.09321  -1.00895  -0.88202  -0.78123
                   2.00000   2.00000   2.00000   2.00000   2.00000   2.00000
                  --------  --------  --------  --------  --------  --------
 0 O  s               0.0       0.0      36.4      25.0       0.1       0.1
 0 O  pz              0.0       0.0       0.8       0.2       0.0       0.0
 0 O  px              0.0       0.0       0.0       0.1       0.1       0.1
 0 O  py              0.0       0.0       1.7       0.2       0.1       0.1
 1 O  s               0.0       0.0      19.3      36.6       1.0       0.0
 1 O  pz              0.0       0.0       1.7       1.5       0.0       0.0
 1 O  px              0.0       0.0       0.4       0.6       0.0       0.0
 1 O  py              0.0       0.0       1.0       0.4       0.0       0.0
 2 N  s               0.0       0.0       0.1       0.1      37.5       7.5
 2 N  pz              0.0       0.0       0.0       0.0       0.6       0.6
 2 N  px              0.0       0.0       0.0       0.0       0.0       0.2
 2 N  py              0.0       0.0       0.1       0.0       1.8       0.4
 3 C  s               0.0       0.0       0.0       0.0       3.8      24.2
 3 C  pz              0.0       0.1       0.0       0.0       0.1       0.6
 3 C  px              0.0       0.0       0.1       0.0       1.3       0.0
 3 C  py              0.1       0.0       0.0       0.0       0.2       0.5
 4 C  s               0.0       0.0       1.0       0.1      17.6       1.9
 4 C  pz              0.0       0.0       0.5       0.2       0.0       1.0
 4 C  px              0.0       0.0       1.0       0.1       0.0       3.3
 4 C  py              0.0       0.0       0.2       0.1       4.8       3.6
 4 C  dz2             0.0       0.0       0.0       0.0       0.1       0.0
 4 C  dx2y2           0.0       0.0       0.0       0.0       0.2       0.2
 5 C  s              99.6       0.0       0.0       0.0       0.5      12.9
 5 C  px              0.0       0.0       0.0       0.0       0.1       0.1
 5 C  py              0.0       0.0       0.0       0.0       0.3       2.5
 6 C  s               0.0      99.6       0.0       0.0       0.7      11.3
 6 C  pz              0.0       0.0       0.0       0.0       0.4       1.8
 6 C  py              0.0       0.0       0.0       0.0       0.0       0.8
 7 C  s               0.0       0.0      20.9       2.3       0.5       0.3
 7 C  pz              0.0       0.0       0.8       9.6       2.0       0.1
 7 C  px              0.0       0.0       2.4       0.7       2.3       0.8
 7 C  py              0.0       0.0       1.5      14.6       0.5       0.0
 7 C  dz2             0.0       0.0       0.0       0.5       0.0       0.0
 7 C  dxz             0.0       0.0       0.2       0.6       0.0       0.0
 7 C  dyz             0.0       0.0       0.6       0.2       0.1       0.0
 7 C  dx2y2           0.0       0.0       0.3       0.2       0.0       0.0
 7 C  dxy             0.0       0.0       0.0       0.6       0.0       0.0
 8 H  s               0.0       0.0       0.0       0.0       0.7       4.5
 8 H  pz              0.0       0.0       0.0       0.0       0.0       0.1
 8 H  px              0.0       0.0       0.0       0.0       0.0       0.1
 9 H  s               0.0       0.0       0.2       0.0       2.8       0.4
 9 H  pz              0.0       0.0       0.0       0.0       0.1       0.0
10 H  s               0.1       0.0       0.0       0.0       0.1       2.4
11 H  s               0.1       0.0       0.0       0.0       0.1       2.5
12 H  s               0.1       0.0       0.0       0.0       0.1       2.4
12 H  px              0.0       0.0       0.0       0.0       0.0       0.1
13 H  s               0.0       0.1       0.0       0.0       0.1       2.2
14 H  s               0.0       0.1       0.0       0.0       0.1       2.2
14 H  px              0.0       0.0       0.0       0.0       0.0       0.1
15 H  s               0.0       0.1       0.0       0.0       0.2       1.8
15 H  py              0.0       0.0       0.0       0.0       0.0       0.1
16 H  s               0.0       0.0       0.0       0.0       8.1       2.4
16 H  pz              0.0       0.0       0.0       0.0       0.1       0.0
[...]
 6 C  dyz             0.0       1.2       0.2       0.6       1.7
 6 C  dx2y2           6.0       1.2       1.7       4.8       0.5
 6 C  dxy             0.0       1.3       0.0       0.4       2.9
 7 C  s               0.1       0.0       0.1       0.1       0.1
 7 C  py              0.1       0.0       0.2       0.1       0.0
 7 C  dz2             0.1       0.0       0.2       0.1       0.0
 7 C  dxz             0.4       0.0       0.3       1.0       0.2
 7 C  dyz             0.0       0.0       0.3       0.4       0.0
 7 C  dx2y2           0.2       0.0       0.1       0.7       0.3
 7 C  dxy             0.1       0.0       0.4       0.1       0.0
 8 H  s               0.5       0.0       0.1       0.0       4.9
 8 H  pz              0.8       0.3       0.2       0.0       7.6
 8 H  px              0.9       0.0       0.1       0.4       6.9
 8 H  py              0.5       0.4       0.0       0.0       5.1
 9 H  s               1.5       0.1       0.8       1.0       0.1
 9 H  pz              5.4       0.3       2.5       3.3       0.6
 9 H  px              0.0       0.0       0.3       0.0       0.0
 9 H  py              1.5       0.2       0.9       1.2       0.0
10 H  s               0.7       0.1       0.2       1.5       0.9
10 H  pz              2.5       0.3       0.7       4.9       3.2
10 H  px              0.2       0.1       0.0       0.0       0.0
10 H  py              0.2       0.0       0.0       0.7       0.5
11 H  s               0.2       2.3       0.3       0.2       2.2
11 H  pz              0.3       3.9       0.3       0.3       2.6
11 H  px              0.1       2.7       0.5       0.3       2.3
11 H  py              0.4       2.5       0.3       0.2       3.8
12 H  s               1.8       3.6       0.0       0.6       0.1
12 H  pz              0.4       1.3       0.0       0.1       0.0
12 H  px              7.3      13.4       0.0       2.3       0.3
12 H  py              0.3       0.2       0.0       0.1       0.1
13 H  s               0.2       2.3       0.3       0.1       1.8
13 H  pz              0.7       3.8       0.5       0.2       4.1
13 H  px              0.1       2.7       0.3       0.3       1.9
13 H  py              0.3       2.9       0.3       0.1       1.2
14 H  s               2.4       2.1       0.7       1.0       0.1
14 H  pz              1.1       0.6       0.2       0.3       0.1
14 H  px              9.5       7.9       2.7       3.8       0.2
14 H  py              0.0       0.2       0.0       0.0       0.0
15 H  s               1.1       0.0       0.3       1.4       0.9
15 H  px              0.3       0.1       0.0       0.4       0.1
15 H  py              4.3       0.1       1.3       4.9       3.4
16 H  s               0.0       0.4       5.0       2.3       0.3
16 H  pz              0.0       0.1       3.2       0.7       0.1
16 H  px              0.1       1.0       9.4       4.5       0.7
16 H  py              0.0       0.0       0.7       0.3       0.1
17 H  s               0.3       0.2       5.1       2.7       0.0
17 H  pz              0.9       0.4       6.3       4.0       0.0
17 H  px              0.2       0.2       6.2       1.9       0.0
17 H  py              0.3       0.0       0.6       1.4       0.1
18 H  s               4.0       1.1       2.5       3.0       0.9
18 H  pz              4.7       1.2       2.9       2.7       0.7
18 H  px              4.8       1.2       2.9       3.0       0.8
18 H  py              0.7       0.1       0.2       1.0       0.2


                      *****************************
                      * MAYER POPULATION ANALYSIS *
                      *****************************

  NA   - Mulliken gross atomic population
  ZA   - Total nuclear charge
  QA   - Mulliken gross atomic charge
  VA   - Mayer's total valence
  BVA  - Mayer's bonded valence
  FA   - Mayer's free valence

  ATOM       NA         ZA         QA         VA         BVA        FA
  0 O      8.4935     8.0000    -0.4935     2.0340     2.0340    -0.0000
  1 O      8.5154     8.0000    -0.5154     2.0137     2.0137    -0.0000
  2 N      7.6299     7.0000    -0.6299     2.8288     2.8288     0.0000
  3 C      6.0509     6.0000    -0.0509     3.9183     3.9183     0.0000
  4 C      6.0022     6.0000    -0.0022     3.8230     3.8230     0.0000
  5 C      6.3274     6.0000    -0.3274     3.8843     3.8843    -0.0000
  6 C      6.3284     6.0000    -0.3284     3.8790     3.8790    -0.0000
  7 C      5.4337     6.0000     0.5663     3.9381     3.9381    -0.0000
  8 H      0.8891     1.0000     0.1109     0.9489     0.9489     0.0000
  9 H      0.8803     1.0000     0.1197     0.9490     0.9490     0.0000
 10 H      0.8928     1.0000     0.1072     0.9569     0.9569     0.0000
 11 H      0.8906     1.0000     0.1094     0.9661     0.9661    -0.0000
 12 H      0.8912     1.0000     0.1088     0.9554     0.9554    -0.0000
 13 H      0.8917     1.0000     0.1083     0.9607     0.9607    -0.0000
 14 H      0.8909     1.0000     0.1091     0.9561     0.9561    -0.0000
 15 H      0.8939     1.0000     0.1061     0.9682     0.9682    -0.0000
 16 H      0.7340     1.0000     0.2660     0.9099     0.9099    -0.0000
 17 H      0.7306     1.0000     0.2694     0.9094     0.9094    -0.0000
 18 H      0.6334     1.0000     0.3666     0.8805     0.8805    -0.0000

  Mayer bond orders larger than 0.100000
B(  0-O ,  7-C ) :   1.1095 B(  0-O , 18-H ) :   0.8266 B(  1-O ,  7-C ) :   1.8539 
B(  2-N ,  4-C ) :   0.9937 B(  2-N , 16-H ) :   0.8981 B(  2-N , 17-H ) :   0.8956 
B(  3-C ,  4-C ) :   0.9632 B(  3-C ,  5-C ) :   1.0041 B(  3-C ,  6-C ) :   1.0062 
B(  3-C ,  8-H ) :   0.9405 B(  4-C ,  7-C ) :   0.9329 B(  4-C ,  9-H ) :   0.9271 
B(  5-C , 10-H ) :   0.9602 B(  5-C , 11-H ) :   0.9565 B(  5-C , 12-H ) :   0.9601 
B(  6-C , 13-H ) :   0.9572 B(  6-C , 14-H ) :   0.9612 B(  6-C , 15-H ) :   0.9551 


-------
TIMINGS
-------

Total SCF time: 0 days 0 hours 0 min 23 sec 

Total time                  ....      23.839 sec
Sum of individual times     ....      21.881 sec  ( 91.8%)

SCF preparation             ....       0.517 sec  (  2.2%)
Fock matrix formation       ....      20.998 sec  ( 88.1%)
  Startup                   ....       0.004 sec  (  0.0% of F)
  Split-RI-J                ....       1.257 sec  (  6.0% of F)
  Chain of spheres X        ....      17.562 sec  ( 83.6% of F)
  XC integration            ....       2.518 sec  ( 12.0% of F)
    XC Preparation          ....       0.000 sec  (  0.0% of XC)
    Basis function eval.    ....       1.010 sec  ( 40.1% of XC)
    Density eval.           ....       0.588 sec  ( 23.3% of XC)
    XC-Functional eval.     ....       0.148 sec  (  5.9% of XC)
    XC-Potential eval.      ....       0.565 sec  ( 22.4% of XC)
  CPCM terms                ....       1.518 sec  (  7.2% of F)
Diagonalization             ....       0.000 sec  (  0.0%)
Density matrix formation    ....       0.014 sec  (  0.1%)
Total Energy calculation    ....       0.009 sec  (  0.0%)
Population analysis         ....       0.228 sec  (  1.0%)
Orbital Transformation      ....       0.022 sec  (  0.1%)
Orbital Orthonormalization  ....       0.000 sec  (  0.0%)
DIIS solution               ....       0.061 sec  (  0.3%)
  MO trafo                  ....       0.000 sec  (  0.0 % of DIIS)
  Orb grad                  ....       0.000 sec  (  0.0 % of DIIS)
  Energy W gradient         ....       0.000 sec  (  0.0 % of DIIS)
  DIIS error                ....       0.012 sec  ( 19.5 % of DIIS)
  DIIS work                 ....       0.035 sec  ( 57.9 % of DIIS)
  Form Q                    ....       0.000 sec  (  0.0 % of DIIS)
  Form QpQm                 ....       0.000 sec  (  0.0 % of DIIS)
  Exp/Cayley                ....       0.000 sec  (  0.0 % of DIIS)
  Orb update                ....       0.000 sec  (  0.0 % of DIIS)
  Wake-sleep                ....       0.002 sec  (  3.9 % of DIIS)
SOSCF solution              ....       0.032 sec  (  0.1%)
  MO trafo                  ....       0.017 sec  ( 52.6 % of SOSCF)
  Orb grad                  ....       0.001 sec  (  3.1 % of SOSCF)
  Rot update                ....       0.002 sec  (  4.8 % of SOSCF)
  Step                      ....       0.010 sec  ( 30.4 % of SOSCF)
Finished LeanSCF after  24.0 sec

Maximum memory used throughout the entire LEANSCF-calculation: 24.2 MB


-------------------------------------------------------------------------------
                          DFT DISPERSION CORRECTION                            
                                                                               
                              DFTD3 V3.1  Rev 1                                
                          USING Becke-Johnson damping                          
-------------------------------------------------------------------------------
The B3LYP functional is recognized
Active option DFTDOPT                   ...         4   

molecular C6(AA) [au] = 2705.487043 


            DFT-D V3
 parameters
 s6 scaling factor         :     1.0000 
 a1 scaling factor         :     0.3981 
 s8 scaling factor         :     1.9889 
 a2 scaling factor         :     4.4211 
 ad hoc parameters k1-k3   :    16.0000     1.3333    -4.0000 

 Edisp/kcal,au: -17.921445571575  -0.028559638381 
 E6   /kcal   :  -8.794403980 
 E8   /kcal   :  -9.127041592 
 % E8         :  50.928043475 

-------------------------   ----------------
Dispersion correction           -0.028559638
-------------------------   ----------------


-------------------------   --------------------
FINAL SINGLE POINT ENERGY      -402.184758313062
-------------------------   --------------------

                                *** OPTIMIZATION RUN DONE ***



           ************************************************************
           *        Program running with 2 parallel MPI-processes     *
           *              working on a common directory               *
           ************************************************************

------------------------------------------------------------------------------
                              ORCA PROPERTY CALCULATIONS
------------------------------------------------------------------------------

GBWName                                 ... /kaggle/working/Val-1/Val_InterFrag.gbw
Number of atoms                         ...     19
Number of basis functions               ...    167
Max core memory                         ...   3000 MB

Electric properties:
Dipole moment                           ... YES
Quadrupole moment                       ...  NO
Static polarizability (Dipole/Dipole)   ...  NO
Static polarizability (Dipole/Quad.)    ...  NO
Static polarizability (Quad./Quad.)     ...  NO
Static polarizability (Velocity)        ...  NO
Static hyperpolarizability              ...  NO

Atomic electric properties:
Dipole moment                           ...  NO
Quadrupole moment                       ...  NO
Static polarizability                   ...  NO

Choice of electric origin               ... Center of mass
Position of electric origin             ...    -0.024093     0.051160     0.006532

General magnetic properties:
Magnetizability                         ...  NO

EPR properties:
g-Tensor (aka g-matrix)                 ...  NO
Zero-Field splitting spin-orbit         ...  NO
Zero-field splitting spin-spin          ...  NO
Hyperfine couplings                     ...  NO (   0 nuclei)
Quadrupole couplings                    ...  NO (   0 nuclei)
Contact density                         ...  NO (   0 nuclei)

NMR properties:
Chemical shifts                         ...  NO (   0 nuclei)
Spin-rotation constants                 ...  NO (   0 nuclei)
Spin-spin couplings                     ...  NO (   0 nuclei,    0 pairs)

Choice of magnetic origin               ... GIAO
Position of magnetic origin             ...     0.000000     0.000000     0.000000

Properties with geometric perturbations:
SCF Hessian                             ...  NO
IR spectrum                             ...  NO
VCD spectrum                            ...  NO
X-ray spectroscopy properties:
SCF XES/XAS/RIXS spectra                ...  NO

SCF SOC stabilization energy            ...  NO
Diagonal Born-Oppenheimer correction    ...  NO

-------------
DIPOLE MOMENT
-------------

Method             : SCF
Type of density    : Electron Density
Multiplicity       :   1
Irrep              :   0
Energy             :  -402.1561986746806951 Eh
Basis              : AO
                                X                 Y                 Z
Electronic contribution:     -8.628748968       0.033377082       0.029592342
Nuclear contribution   :      8.999372237      -0.902292489      -1.162338433
                        -----------------------------------------
Total Dipole Moment    :      0.370623269      -0.868915407      -1.132746091
                        -----------------------------------------
Magnitude (a.u.)       :      1.474953999
Magnitude (Debye)      :      3.749035124



--------------------
Rotational spectrum 
--------------------
 
Rotational constants in cm-1:             0.079580             0.058988             0.047667 
Rotational constants in MHz :          2385.740845          1768.408531          1429.020919 

Dipole components along the rotational axes: 
x,y,z [a.u.] :     0.513136    -0.636569    -1.227583 
x,y,z [Debye]:     1.304288    -1.618030    -3.120269 

 

Dipole moment calculation done in   0.0 sec 

Maximum memory used throughout the entire PROP-calculation: 9.8 MB

--------------------------------
SUGGESTED CITATIONS FOR THIS RUN
--------------------------------

Below you find a list of papers that are relevant to this ORCA run
We neither can nor want to force you to cite these papers, but we appreciate if you do
You receive ORCA, which is the product of decades of hard work by many enthusiastic individuals, for free
The only thing we kindly ask in return is that you cite our papers,
We deeply appreciate it, if you show your appreciation for ORCA by not just citing the generic ORCA reference.

Please note that relegating all ORCA citations to the supporting information does *not* help us.
SI sections are not indexed - citations you put there will not count into any citation statistics
But we need these citations in order to attract the funding resources that allow us to do what we are doing

Therefore, if you are a happy ORCA user, please consider citing a few of the papers listed below in the main body of your paper

In addition to the list printed below, the program has created the file /kaggle/working/Val-1/Val_InterFrag.bibtex that contains the list in bibtex format
You can import this file easily into all common literature databanks and citation aid programs

It goes without saying that in many instances, there are alternative algorithms to achieve similar
results as the ones you have gotten from ORCA. It is, of course, also the case that in some instances
ORCA just re-implements algorithms worked out by others. We are fully aware of that and we are also
fully appreciative of our colleagues work. Hence this citation list should not be read as indicating
that the listed papers, which are focused on our own work, are the only ones worth citing. It simply
meant to make it easier for users to cite ORCA specific papers. It is not a substitute for doing your
own literature research and citing the relevant literature in a scientifically appropriate manner.

List of essential papers. We consider these as the minimum necessary citations

  1. Neese, F.
     Software update: the ORCA program system, version 6.0
     WIRES Comput. Molec. Sci. 2025 15(1), e70019
     doi.org/10.1002/wcms.70019

List of papers to cite with high priority. The work reported in these papers was absolutely
necessary for this run to complete.
Our perspective: the developers of density functionals and basis sets usually get cited in chemistry papers
Good! But without the algorithms to do something with them, the functionals or basis sets would not do anything.
Hence, in our opinion, the algorithm design and method developments papers are equally worthy of getting cited

  1. Neese, F.
     An improvement of the resolution of the identity approximation for the formation of the Coulomb matrix
     J. Comp. Chem. 2003 24(14), 1740-1747
     doi.org/10.1002/jcc.10318
  2. Neese, F.; Wennmohs, F.; Hansen, A.; Becker, U.
     Efficient, approximate and parallel Hartree-Fock and hybrid DFT calculations. A 'chain-of-spheres' algorithm for the Hartree-Fock exchange
     Chem. Phys. 2009 356(1-3), 98-109
     doi.org/10.1016/j.chemphys.2008.10.036
  3. Grimme, S.; Antony, J.; Ehrlich, S.; Krieg, H.
     A consistent and accurate ab initio parametrization of density functional dispersion correction (DFT-D) for the 94 elements H-Pu
     J. Chem. Phys. 2010 132 , 154104
     doi.org/10.1063/1.3382344
  4. Grimme, S.; Ehrlich, S.; Goerigk, L.
     Effect of the damping function in dispersion corrected density functional theory
     J. Comput. Chem. 2011 32(7), 1456-1465
     doi.org/10.1002/jcc.21759
  5. Garcia-Rates, M.; Neese, F.
     Effect of the Solute Cavity on the Solvation Energy and its Derivatives within the Framework of the Gaussian Charge Scheme
     J. Comput. Chem. 2020 41 , 922-939
     doi.org/10.1002/jcc.26139
  6. Helmich-Paris, B.; de Souza, B.; Neese, F.; Izsák, R.
     An improved chain of spheres for exchange algorithm
     J. Chem. Phys. 2021 155(10), 104109
     doi.org/10.1063/5.0058766
  7. Neese, F.
     The SHARK Integral Generation and Digestion System
     J. Comp. Chem. 2022 44(3), 381
     doi.org/10.1002/jcc.26942

List of suggested additional citations. These are papers that are important in the 'surrounding' of 
of this run, or papers that preceded the highly important papers. If you like your results we are grateful for a citation.

  1. Izsak, R.; Neese, F.
     An overlap fitted chain of spheres exchange method
     J. Chem. Phys. 2011 135 , 144105
     doi.org/10.1063/1.3646921
  2. Izsak, R.; Hansen, A.; Neese, F.
     The resolution of identity and chain of spheres approximations for the LPNO-CCSD singles Fock term
     Molec. Phys. 2012 110 , 2413-2417
     doi.org/10.1080/00268976.2012.687466
  3. Neese, F.
     The ORCA program system
     WIRES Comput. Molec. Sci. 2012 2(1), 73-78
     doi.org/10.1002/wcms.81
  4. Izsak, R.; Neese, F.; Klopper, W.
     Robust fitting techniques in the chain of spheres approximation to the Fock exchange: The role of the complementary space
     J. Chem. Phys. 2013 139 , 
     doi.org/10.1063/1.4819264
  5. Neese, F.
     Software update: the ORCA program system, version 4.0
     WIRES Comput. Molec. Sci. 2018 8(1), 1-6
     doi.org/10.1002/wcms.1327
  6. Neese, F.; Wennmohs, F.; Becker, U.; Riplinger, C.
     The ORCA quantum chemistry program package
     J. Chem. Phys. 2020 152(22), 224108
     doi.org/10.1063/5.0004608
  7. Neese, F.
     Software update: The ORCA program system—Version 5.0
     WIRES Comput. Molec. Sci. 2022 12(1), e1606
     doi.org/10.1002/wcms.1606

List of optional additional citations

  1. Neese, F.
     Approximate second-order SCF convergence for spin unrestricted wavefunctions
     Chem. Phys. Lett. 2000 325(1-3), 93-98
     doi.org/10.1016/s0009-2614(00)00662-x

Timings for individual modules:

Sum of individual times          ...      700.174 sec (=  11.670 min)
Startup calculation              ...       29.855 sec (=   0.498 min)   4.3 %
SCF iterations                   ...      412.804 sec (=   6.880 min)  59.0 %
Property calculations            ...        0.463 sec (=   0.008 min)   0.1 %
SCF Gradient evaluation          ...      256.950 sec (=   4.282 min)  36.7 %
Geometry relaxation              ...        0.102 sec (=   0.002 min)   0.0 %
                             ****ORCA TERMINATED NORMALLY****
TOTAL RUN TIME: 0 days 0 hours 11 minutes 46 seconds 340 msec
