
                                 *****************
                                 * O   R   C   A *
                                 *****************

                                            #,                                       
                                            ###                                      
                                            ####                                     
                                            #####                                    
                                            ######                                   
                                           ########,                                 
                                     ,,################,,,,,                         
                               ,,#################################,,                 
                          ,,##########################################,,             
                       ,#########################################, ''#####,          
                    ,#############################################,,   '####,        
                  ,##################################################,,,,####,       
                ,###########''''           ''''###############################       
              ,#####''   ,,,,##########,,,,          '''####'''          '####       
            ,##' ,,,,###########################,,,                        '##       
           ' ,,###''''                  '''############,,,                           
         ,,##''                                '''############,,,,        ,,,,,,###''
      ,#''                                            '''#######################'''  
     '                                                          ''''####''''         
             ,#######,   #######,   ,#######,      ##                                
            ,#'     '#,  ##    ##  ,#'     '#,    #''#        ,####,    ,#,          
            ##       ##  ##   ,#'  ##            #'  '#       #'       ,# #          
            ##       ##  #######   ##           ,######,      #####,      #          
            '#,     ,#'  ##    ##  '#,     ,#' ,#      #,     #,   #      #          
             '#######'   ##     ##  '#######'  #'      '#     '####' #    #          



                #########################################################
                #                        -***-                          #
                #          Department of theory and spectroscopy        #
                #                                                       #
                #                      Frank Neese                      #
                #                                                       #
                #     Directorship, Architecture, Infrastructure        #
                #                    SHARK, DRIVERS                     #
                #        Core code/Algorithms in most modules           #
                #                                                       #
                #        Max Planck Institute fuer Kohlenforschung      #
                #                Kaiser Wilhelm Platz 1                 #
                #                 D-45470 Muelheim/Ruhr                 #
                #                      Germany                          #
                #                                                       #
                #                  All rights reserved                  #
                #                        -***-                          #
                #########################################################


                         Program Version 6.1.1  -  RELEASE   -
                                (GIT: $487d211c$)
                          ($2025-11-21 10:33:24 +0100$)
                                                                         
                                  - NO-DMRG VERSION -                    
                                                                         


 With contributions from (in alphabetic order):
[Max-Planck-Institut fuer Kohlenforschung]                               
  Daniel Aravena         : Magnetic Suceptibility                        
  Michael Atanasov       : Ab Initio Ligand Field Theory (pilot matlab implementation)
  Alexander A. Auer      : GIAO ZORA, VPT2 properties, NMR spectrum      
  Ute Becker             : All parallelization in ORCA, NUMFREQ, NUMCALC 
  Giovanni Bistoni       : ED, misc. LED, open-shell LED, HFLD           
  Dmytro Bykov           : pre 5.0 version of the SCF Hessian            
  Marcos Casanova-Páez   : Triplet and SCS-CIS(D). UHF-(DLPNO)-IP/EA/STEOM-CCSD. UHF-CVS-IP/STEOM-CCSD   
  Vijay G. Chilkuri      : MRCI spin determinant printing, contributions to CSF-ICE 
  Pauline Colinet        : FMM embedding                                 
  Dipayan Datta          : RHF DLPNO-CCSD density                        
  Achintya Kumar Dutta   : EOM-CC, STEOM-CC                              
  Nicolas Foglia         : Exact transition moments, OPA infrastructure, MCD improvements    
  Dmitry Ganyushin       : Spin-Orbit,Spin-Spin,Magnetic field MRCI      
  Miquel Garcia-Rates    : C-PCM and meta-GGA Hessian, CCSD/C-PCM, Gaussian charge scheme 
  Tiago L. C. Gouveia    : GS-ROHF, GS-ROCIS                             
  Yang Guo               : DLPNO-NEVPT2, F12-NEVPT2, CIM, IAO-localization        
  Andreas Hansen         : Spin unrestricted coupled pair/coupled cluster methods 
  Ingolf Harden          : AUTO-CI MPn and infrastructure                
  Benjamin Helmich-Paris : MC-RPA, TRAH-(SCF,CASSCF), AVAS, COSX integrals, SCF dyn. polar., MC-PDFT, srDFT 
  Lee Huntington         : MR-EOM, pCC                                   
  Robert Izsak           : Overlap fitted RIJCOSX, COSX-SCS-MP3, EOM     
  Riya Kayal             : Wick's Theorem for AUTO-CI, AUTO-CI UHF-CCSDT 
  Emily Kempfer          : AUTO-CI RHF CISDT and CCSDT, approximate NEVPT4
  Christian Kollmar      : KDIIS, OOCD, Brueckner-CCSD(T), CCSD density, CASPT2, CASPT2-K, improved NEVPT2 
  Axel Koslowski         : Symmetry handling                             
  Simone Kossmann        : meta-GGA functionals, TD-DFT gradient, OOMP2, (MP2 Hessian; deprecated post 5.0) 
  Lucas Lang             : DCDCAS, Hyperfine gauge corrections, ICE-SOC+SSC
  Marvin Lechner         : AUTO-CI (C++ implementation), FIC-MRCC        
  Spencer Leger          : CASSCF response                               
  Dagmar Lenk            : GEPOL surface, SMD, ORCA-2-JSON               
  Dimitrios Liakos       : Extrapolation schemes; Compound Job, Property file
  Dimitrios Manganas     : Further ROCIS development; embedding schemes. LFT, Crystal Embedding 
  Dimitrios Pantazis     : SARC Basis sets                               
  Anastasios Papadopoulos: AUTO-CI, single reference methods and gradients 
  Taras Petrenko         : pre 6.0 DFT Hessian and TD-DFT gradient,  ECA, NRVS 
  Petra Pikulova         : Analytic Raman intensities                    
  Peter Pinski           : DLPNO-MP2, DLPNO-MP2 Gradient                 
  Shashank Vittal Rao    : ES-AILFT, MagRelax                            
  Christoph Reimann      : Effective Core Potentials                     
  Marius Retegan         : Local ZFS, SOC                                
  Christoph Riplinger    : Optimizer, TS searches, QM/MM, DLPNO-CCSD(T), (RO)-DLPNO pert. Triples 
  Michael Roemelt        : Original ROCIS implementation, recursive CI coupling coefficients
  Masaaki Saitow         : Open-shell DLPNO-CCSD energy and density      
  Barbara Sandhoefer     : DKH picture change effects                    
  Yorick L. A. Schmerwitz: GMF and freeze-and-release deltaSCF, NEB S-IDPP initial path                    
  Kantharuban Sivalingam : CASSCF convergence/infrastructure, NEVPT2, NEVPT3, NEVPT4(SD), FIC-MRCI and CEPA variants
  Bernardo de Souza      : ESD, SOC TD-DFT                               
  Georgi L. Stoychev     : AutoAux, RI-MP2 NMR, DLPNO-MP2 response, X2C  
  Van Anh Tran           : RI-MP2 g-tensors                              
  Willem Van den Heuvel  : Paramagnetic NMR                              
  Zikuan Wang            : NOTCH, Electric field optimization            
  Frank Wennmohs         : Technical directorship and infrastructure     
  Hang Xu                : AUTO-CI-Response properties                   
                                                                         
[FACCTs GmbH]                                                            
  Markus Bursch, Nicolas Foglia, Miquel Garcia-Rates, Ingolf Harden, Hagen Neugebauer, Anastasios Papadopoulos, 
  Christoph Riplinger, Bernardo de Souza, Georgi L. Stoychev                                                    
                                                                 
  APM, various basis sets, CI-OPT, improved COSX, DLPNO-Multilevel,           
  DOCKER, DRACO, updates on ESD, Fragmentator, GOAT, IRC, LR-CPCM, L-BFGS, MBIS, meta-GGA TD-DFT gradient, ML-optimized integration grids, 
  MM, NACMEs, nearIR, NEB, NEB-TS, NL-DFT gradient (VV10), 2- and 3-layer-ONIOM, interface openCOSMO-RS, QMMM,   
  Crystal-QMMM, RESP, rigid body optimization, SF, symmetry and pop. for TD-DFT, various functionals, SOLVATOR                                   
                                                                         
[Other institutions]                                                     
  V. Asgeirsson          : NEB                                           
  Christoph Bannwarth    : sTDA-DFT, sTD-DFT, PBEh-3c, B97-3c, D3        
  Giovanni Bistoni       : ETS/NOCV, ADLD/ADEX, COVALED                  
  Martin Brehm           : Molecular dynamics                            
  Ronald Cardenas        : ETS/NOCV                                      
  Martina Colucci        : COVALED                                       
  Sebastian Ehlert       : rSCAN, r2SCAN, r2SCAN-3c, D4, dhf basis sets  
  Marvin Friede          : D4 for Fr, Ra, Ac-Lr                          
  Lars Goerigk           : TD-DFT with DH, B97 family of functionals     
  Stefan Grimme          : VdW corrections, initial TS optimization, DFT functionals, gCP, sTDA/sTD-DF 
  Waldemar Hujo          : DFT-NL                                        
  H. Jonsson             : NEB                                           
  Holger Kruse           : gCP                                           
  Marcel Mueller         : wB97X-3c, vDZP basis set                      
  Hagen Neugebauer       : wr2SCAN, Native XTB                           
  Gianluca Regni         : ADLD/ADEX                                     
  Tobias Risthaus        : pre 6.0 range-separated hybrid DFT and stability analysis
  Lukas Wittmann         : regularized MP2, r2SCAN double-hybrids, wr2SCAN        
                                                                         
We gratefully acknowledge several colleagues who have allowed us to      
interface, adapt or use parts of their codes:                            
  Ed Valeev, F. Pavosevic, A. Kumar             : LibInt (2-el integral package), F12 methods 
  Garnet Chan, S. Sharma, J. Yang, R. Olivares  : DMRG                   
  Ulf Ekstrom                                   : XCFun DFT Library      
  Mihaly Kallay                                 : mrcc  (arbitrary order and MRCC methods)
  Frank Weinhold                                : gennbo (NPA and NBO analysis)           
  Simon Mueller                                 : openCOSMO-RS                            
  Christopher J. Cramer and Donald G. Truhlar   : smd solvation model                     
  S Lehtola, MJT Oliveira, MAL Marques          : LibXC Library                           
  Liviu Ungur et al                             : ANISO software                          


 Your calculation uses the libint2 library for the computation of 2-el integrals
 For citations please refer to: http://libint.valeyev.net

 Your ORCA version has been built with support for libXC version: 7.0.0
 For citations please refer to: https://libxc.gitlab.io

 This ORCA versions uses:
   CBLAS   interface :  Fast vector & matrix operations
   LAPACKE interface :  Fast linear algebra routines
   SCALAPACK package :  Parallel linear algebra routines
   Shared memory     :  Shared parallel matrices
   BLAS/LAPACK       :  OpenBLAS 0.3.29  USE64BITINT DYNAMIC_ARCH NO_AFFINITY Haswell SINGLE_THREADED
        Core in use  :  Haswell
   Copyright (c) 2011-2014, The OpenBLAS Project


  ***********************************
  * Starting time: Sat Mar 28 20:10:52 2026
  * Host name:     1c8db70ee31d
  * Process ID:    489
  * Working dir.:  /kaggle/working
  ***********************************

NOTE: MaxCore=3000 MB was set to SCF,MP2,MDCI,CIPSI,MRCI,RASCI and CIS
      => If you want to overwrite this, your respective input block should be placed after the MaxCore statement
Your calculation utilizes the atom-pairwise dispersion correction
with the Becke-Johnson damping scheme (D3BJ)


Warning: RI is on but no J-basis has been assigned. Assigning Def2/J (nothing to worry about!)
================================================================================

----- Orbital basis set information -----
Your calculation utilizes the basis: 6-31G(d,p)
   H-He, Li-Ne : W. J. Hehre, R. Ditchfield and J.A. Pople, J. Chem. Phys. 56, 2257 (1972).
                 Note: He and Ne are unpublished basis sets taken from the Gaussian program.
                 Note: Li and B from J. D. Dill and J. A. Pople, J. Chem. Phys. 62, 2921 (1975).
   Na - Ar     : M. M. Francl, W. J. Pietro, W. J. Hehre, J. S. Binkley, M. S. Gordon, 
                 D. J. DeFrees and J. A. Pople, J. Chem. Phys. 77, 3654 (1982).
   K - Zn      : V. A. Rassolov, J. A. Pople, M. A. Ratner, and T. L. Windus, J. Chem. Phys. 109, 1223 (1998).

----- AuxJ basis set information -----
Your calculation utilizes the auxiliary basis: def2/J
   H-Rn: F. Weigend, Phys. Chem. Chem. Phys. 8, 1057 (2006).
   Fr-Lr: K. Eichkorn, F. Weigend, O. Treutler, R. Ahlrichs; Theor. Chem. Acc. 97, 119 (1997).

================================================================================
                                        WARNINGS
                       Please study these warnings very carefully!
================================================================================


================================================================================
                                       INPUT FILE
================================================================================
NAME = /kaggle/working/Trp-F-2/Trp-F_InterFrag.inp
|  1> 
|  2> !RKS B3LYP 6-31G(d,p) TightSCF D3BJ # def2-TZVPP
|  3> 
|  4> %pal nprocs 2 end
|  5> %maxcore 3000
|  6> 
|  7> %elprop
|  8>   Polar 1      # polarizability via CP-SCF
|  9> end
| 10> 
| 11> %output
| 12>   PrintLevel Normal
| 13>   Print[ P_OrbEn ] 2
| 14> end
| 15> 
| 16> *xyz 0 1
| 17>   F     -2.518486    2.717138    0.449194
| 18>   O      1.583065    0.807908   -1.760432
| 19>   O      2.270791    2.135967   -0.075042
| 20>   N     -1.160486   -2.507571   -0.354748
| 21>   N      4.077606    0.070628    0.643010
| 22>   C      0.490885   -1.232753    0.518024
| 23>   C      1.824719   -0.808932    1.052191
| 24>   C     -0.674415   -0.406936    0.321345
| 25>   C      2.802904   -0.239325   -0.008182
| 26>   C     -1.693405   -1.241315   -0.226349
| 27>   C      0.143452   -2.496317    0.092800
| 28>   C     -0.953280    0.953602    0.555519
| 29>   C     -2.967759   -0.757791   -0.538638
| 30>   C     -2.219851    1.403859    0.236170
| 31>   C      2.217279    1.032397   -0.594027
| 32>   C     -3.228105    0.588000   -0.300907
| 33>   H      2.330260   -1.667997    1.507090
| 34>   H      1.704253   -0.052439    1.835717
| 35>   H      2.881232   -0.971098   -0.822747
| 36>   H      0.733954   -3.401807    0.080383
| 37>   H     -1.651720   -3.318049   -0.702774
| 38>   H     -0.212230    1.634993    0.958482
| 39>   H     -3.730478   -1.408855   -0.953847
| 40>   H      4.746511    0.357188   -0.070114
| 41>   H      4.440564   -0.800935    1.025260
| 42>   H     -4.196933    1.021641   -0.523388
| 43>   H      1.166972    1.643997   -2.040988
| 44> 
| 45> *
| 46> 
| 47>                          ****END OF INPUT****
================================================================================

                       ****************************
                       * Single Point Calculation *
                       ****************************

---------------------------------
CARTESIAN COORDINATES (ANGSTROEM)
---------------------------------
  F     -2.518486    2.717138    0.449194
  O      1.583065    0.807908   -1.760432
  O      2.270791    2.135967   -0.075042
  N     -1.160486   -2.507571   -0.354748
  N      4.077606    0.070628    0.643010
  C      0.490885   -1.232753    0.518024
  C      1.824719   -0.808932    1.052191
  C     -0.674415   -0.406936    0.321345
  C      2.802904   -0.239325   -0.008182
  C     -1.693405   -1.241315   -0.226349
  C      0.143452   -2.496317    0.092800
  C     -0.953280    0.953602    0.555519
  C     -2.967759   -0.757791   -0.538638
  C     -2.219851    1.403859    0.236170
  C      2.217279    1.032397   -0.594027
  C     -3.228105    0.588000   -0.300907
  H      2.330260   -1.667997    1.507090
  H      1.704253   -0.052439    1.835717
  H      2.881232   -0.971098   -0.822747
  H      0.733954   -3.401807    0.080383
  H     -1.651720   -3.318049   -0.702774
  H     -0.212230    1.634993    0.958482
  H     -3.730478   -1.408855   -0.953847
  H      4.746511    0.357188   -0.070114
  H      4.440564   -0.800935    1.025260
  H     -4.196933    1.021641   -0.523388
  H      1.166972    1.643997   -2.040988

----------------------------
CARTESIAN COORDINATES (A.U.)
----------------------------
  NO LB      ZA    FRAG     MASS         X           Y           Z
   0 F     9.0000    0    18.998   -4.759249    5.134647    0.848854
   1 O     8.0000    0    15.999    2.991559    1.526725   -3.326734
   2 O     8.0000    0    15.999    4.291173    4.036393   -0.141809
   3 N     7.0000    0    14.007   -2.193001   -4.738622   -0.670377
   4 N     7.0000    0    14.007    7.705559    0.133468    1.215113
   5 C     6.0000    0    12.011    0.927638   -2.329566    0.978923
   6 C     6.0000    0    12.011    3.448219   -1.528660    1.988353
   7 C     6.0000    0    12.011   -1.274460   -0.768998    0.607254
   8 C     6.0000    0    12.011    5.296721   -0.452259   -0.015462
   9 C     6.0000    0    12.011   -3.200072   -2.345745   -0.427738
  10 C     6.0000    0    12.011    0.271085   -4.717355    0.175367
  11 C     6.0000    0    12.011   -1.801438    1.802047    1.049779
  12 C     6.0000    0    12.011   -5.608252   -1.432017   -1.017878
  13 C     6.0000    0    12.011   -4.194910    2.652909    0.446297
  14 C     6.0000    0    12.011    4.190050    1.950948   -1.122548
  15 C     6.0000    0    12.011   -6.100234    1.111159   -0.568632
  16 H     1.0000    0     1.008    4.403553   -3.152058    2.847987
  17 H     1.0000    0     1.008    3.220571   -0.099095    3.469002
  18 H     1.0000    0     1.008    5.444739   -1.835109   -1.554767
  19 H     1.0000    0     1.008    1.386972   -6.428484    0.151902
  20 H     1.0000    0     1.008   -3.121298   -6.270204   -1.328050
  21 H     1.0000    0     1.008   -0.401057    3.089689    1.811268
  22 H     1.0000    0     1.008   -7.049582   -2.662350   -1.802510
  23 H     1.0000    0     1.008    8.969606    0.674987   -0.132496
  24 H     1.0000    0     1.008    8.391450   -1.513548    1.937461
  25 H     1.0000    0     1.008   -7.931054    1.930622   -0.989060
  26 H     1.0000    0     1.008    2.205257    3.106704   -3.856908

--------------------------------
INTERNAL COORDINATES (ANGSTROEM)
--------------------------------
 F      0   0   0     0.000000000000     0.00000000     0.00000000
 O      1   0   0     5.034910809377     0.00000000     0.00000000
 O      2   1   0     2.253274774779    72.35490246     0.00000000
 N      2   1   3     4.527186830350    69.37592103   123.41273422
 N      3   2   1     2.836512701161    87.39851213   134.74583683
 C      4   2   1     2.261397372588    42.64611832   274.28326177
 C      6   4   2     1.498022617815   161.31914644   253.74795991
 C      6   4   2     1.441728281102    71.33838098    71.14941932
 C      5   3   2     1.464577437993    59.14528680   330.47567058
 C      4   2   1     1.379816372311    65.85021314     7.03902518
 C      6   4   2     1.377722440030    34.88612983   251.13417762
 C      8   6   4     1.408427065895   133.68342233   180.06731076
 C     10   4   2     1.398319704293   130.43107270   135.45750382
 C      1   2   3     1.363548246173    52.25169291   235.00847710
 C      3   2   1     1.220686572904    30.20515845   118.90363768
 C     13  10   4     1.391204328543   117.83229897   180.08583226
 H      7   6   4     1.095672157676   109.69709034   331.14567075
 H      7   6   4     1.095767634529   110.63457181   213.12527418
 H      9   5   3     1.097790115795   114.13496161   134.86672354
 H     11   6   4     1.081091547462   129.34372387   180.37495713
 H      4   2   1     1.009607610865   140.87162887   124.26944377
 H     12   8   6     1.084356019373   122.24172305     0.80171471
 H     13  10   4     1.085367734336   121.22777265     0.03487994
 H      5   3   2     1.018870144818    92.07584104    81.02556739
 H      5   3   2     1.018565479109   160.91361905   282.72852677
 H     16  13  10     1.084513718597   121.25956001   179.94106596
 H      2   1   3     0.975135821158    56.87519627   269.58861521

---------------------------
INTERNAL COORDINATES (A.U.)
---------------------------
 F      0   0   0     0.000000000000     0.00000000     0.00000000
 O      1   0   0     9.514602538442     0.00000000     0.00000000
 O      2   1   0     4.258072228806    72.35490246     0.00000000
 N      2   1   3     8.555143266457    69.37592103   123.41273422
 N      3   2   1     5.360232180584    87.39851213   134.74583683
 C      4   2   1     4.273421714161    42.64611832   274.28326177
 C      6   4   2     2.830852490091   161.31914644   253.74795991
 C      6   4   2     2.724471610812    71.33838098    71.14941932
 C      5   3   2     2.767650259726    59.14528680   330.47567058
 C      4   2   1     2.607475058769    65.85021314     7.03902518
 C      6   4   2     2.603518100214    34.88612983   251.13417762
 C      8   6   4     2.661541434143   133.68342233   180.06731076
 C     10   4   2     2.642441288779   130.43107270   135.45750382
 C      1   2   3     2.576732755656    52.25169291   235.00847710
 C      3   2   1     2.306763318144    30.20515845   118.90363768
 C     13  10   4     2.628995177273   117.83229897   180.08583226
 H      7   6   4     2.070520310571   109.69709034   331.14567075
 H      7   6   4     2.070700735674   110.63457181   213.12527418
 H      9   5   3     2.074522671379   114.13496161   134.86672354
 H     11   6   4     2.042966950400   129.34372387   180.37495713
 H      4   2   1     1.907881887257   140.87162887   124.26944377
 H     12   8   6     2.049135908284   122.24172305     0.80171471
 H     13  10   4     2.051047772490   121.22777265     0.03487994
 H      5   3   2     1.925385539734    92.07584104    81.02556739
 H      5   3   2     1.924809804983   160.91361905   282.72852677
 H     16  13  10     2.049433916630   121.25956001   179.94106596
 H      2   1   3     1.842739645366    56.87519627   269.58861521

---------------------
BASIS SET INFORMATION
---------------------
There are 5 groups of distinct atoms

 Group   1 Type F   : 10s4p1d contracted to 3s2p1d pattern {631/31/1}
 Group   2 Type O   : 10s4p1d contracted to 3s2p1d pattern {631/31/1}
 Group   3 Type N   : 10s4p1d contracted to 3s2p1d pattern {631/31/1}
 Group   4 Type C   : 10s4p1d contracted to 3s2p1d pattern {631/31/1}
 Group   5 Type H   : 4s1p contracted to 2s1p pattern {31/1}

Atom   0F    basis set group =>   1
Atom   1O    basis set group =>   2
Atom   2O    basis set group =>   2
Atom   3N    basis set group =>   3
Atom   4N    basis set group =>   3
Atom   5C    basis set group =>   4
Atom   6C    basis set group =>   4
Atom   7C    basis set group =>   4
Atom   8C    basis set group =>   4
Atom   9C    basis set group =>   4
Atom  10C    basis set group =>   4
Atom  11C    basis set group =>   4
Atom  12C    basis set group =>   4
Atom  13C    basis set group =>   4
Atom  14C    basis set group =>   4
Atom  15C    basis set group =>   4
Atom  16H    basis set group =>   5
Atom  17H    basis set group =>   5
Atom  18H    basis set group =>   5
Atom  19H    basis set group =>   5
Atom  20H    basis set group =>   5
Atom  21H    basis set group =>   5
Atom  22H    basis set group =>   5
Atom  23H    basis set group =>   5
Atom  24H    basis set group =>   5
Atom  25H    basis set group =>   5
Atom  26H    basis set group =>   5
---------------------------------
AUXILIARY/J BASIS SET INFORMATION
---------------------------------
There are 5 groups of distinct atoms

 Group   1 Type F   : 12s5p4d2f1g contracted to 6s4p3d1f1g pattern {711111/2111/211/2/1}
 Group   2 Type O   : 12s5p4d2f1g contracted to 6s4p3d1f1g pattern {711111/2111/211/2/1}
 Group   3 Type N   : 12s5p4d2f1g contracted to 6s4p3d1f1g pattern {711111/2111/211/2/1}
 Group   4 Type C   : 12s5p4d2f1g contracted to 6s4p3d1f1g pattern {711111/2111/211/2/1}
 Group   5 Type H   : 5s2p1d contracted to 3s1p1d pattern {311/2/1}

Atom   0F    basis set group =>   1
Atom   1O    basis set group =>   2
Atom   2O    basis set group =>   2
Atom   3N    basis set group =>   3
Atom   4N    basis set group =>   3
Atom   5C    basis set group =>   4
Atom   6C    basis set group =>   4
Atom   7C    basis set group =>   4
Atom   8C    basis set group =>   4
Atom   9C    basis set group =>   4
Atom  10C    basis set group =>   4
Atom  11C    basis set group =>   4
Atom  12C    basis set group =>   4
Atom  13C    basis set group =>   4
Atom  14C    basis set group =>   4
Atom  15C    basis set group =>   4
Atom  16H    basis set group =>   5
Atom  17H    basis set group =>   5
Atom  18H    basis set group =>   5
Atom  19H    basis set group =>   5
Atom  20H    basis set group =>   5
Atom  21H    basis set group =>   5
Atom  22H    basis set group =>   5
Atom  23H    basis set group =>   5
Atom  24H    basis set group =>   5
Atom  25H    basis set group =>   5
Atom  26H    basis set group =>   5


           ************************************************************
           *        Program running with 2 parallel MPI-processes     *
           *              working on a common directory               *
           ************************************************************
------------------------------------------------------------------------------
                             ORCA STARTUP CALCULATIONS
                           -- RI-GTO INTEGRALS CHOSEN --
------------------------------------------------------------------------------
------------------------------------------------------------------------------
                   ___                                                        
                  /   \      - P O W E R E D   B Y -                         
                 /     \                                                     
                 |  |  |   _    _      __       _____    __    __             
                 |  |  |  | |  | |    /  \     |  _  \  |  |  /  |          
                  \  \/   | |  | |   /    \    | | | |  |  | /  /          
                 / \  \   | |__| |  /  /\  \   | |_| |  |  |/  /          
                |  |  |   |  __  | /  /__\  \  |    /   |      \           
                |  |  |   | |  | | |   __   |  |    \   |  |\   \          
                \     /   | |  | | |  |  |  |  | |\  \  |  | \   \       
                 \___/    |_|  |_| |__|  |__|  |_| \__\ |__|  \__/        
                                                                              
                      - O R C A' S   B I G   F R I E N D -                    
                                      &                                       
                       - I N T E G R A L  F E E D E R -                       
                                                                              
 v1 FN, 2020, v2 2021, v3 2022-2024                                           
------------------------------------------------------------------------------


----------------------
SHARK INTEGRAL PACKAGE
----------------------

Number of atoms                             ...     27
Number of basis functions                   ...    279
Number of shells                            ...    129
Maximum angular momentum                    ...      2
Integral batch strategy                     ... SHARK/LIBINT Hybrid
RI-J (if used) integral strategy            ... SPLIT-RIJ (Revised 2003 algorithm where possible)
Printlevel                                  ...      1
Contraction scheme used                     ... SEGMENTED contraction
Prescreening option                         ... SCHWARTZ
   Thresh                                   ... 2.500e-11
   Tcut                                     ... 2.500e-12
   Tpresel                                  ... 2.500e-12 
Coulomb Range Separation                    ... NOT USED
Exchange Range Separation                   ... NOT USED
Multipole approximations                    ... NOT USED
Finite Nucleus Model                        ... NOT USED
CABS basis                                  ... NOT available
Auxiliary Coulomb fitting basis             ... AVAILABLE
   # of basis functions in Aux-J            ...    905
   # of shells in Aux-J                     ...    295
   Maximum angular momentum in Aux-J        ...      4
Auxiliary J/K fitting basis                 ... NOT available
Auxiliary Correlation fitting basis         ... NOT available
Auxiliary 'external' fitting basis          ... NOT available

Checking pre-screening integrals            ... done (  0.0 sec) Dimension = 129
   => SHARK Basis and OBASIS are compatible. Storing Pre-screening
Shell pair information
Shell pair cut-off parameter TPreSel        ...   2.5e-12
Total number of shell pairs                 ...      8385
Shell pairs after pre-screening             ...      6747
Total number of primitive shell pairs       ...     44029
Primitive shell pairs kept                  ...     21209
          la=0 lb=0:   1971 shell pairs
          la=1 lb=0:   2448 shell pairs
          la=1 lb=1:    801 shell pairs
          la=2 lb=0:    866 shell pairs
          la=2 lb=1:    555 shell pairs
          la=2 lb=2:    106 shell pairs

Checking whether 4 symmetric matrices of dimension 279 fit in memory
:Max Core in MB      =   3000.00
 MB in use           =     12.60
 MB left             =   2987.40
 MB needed           =      1.19
 Data fit in memory  = YES
Calculating RI/J V-Matrix + Cholesky decomp.... done (  0.1 sec)
Calculating Nuclear repulsion               ... done (  0.0 sec) ENN=   1093.701081957784 Eh

Diagonalization of the overlap matrix:
Smallest eigenvalue                        ... 3.836e-04
Time for diagonalization                   ...    0.012 sec
Threshold for overlap eigenvalues          ... 1.000e-07
Number of eigenvalues below threshold      ... 0
Time for construction of square roots      ...    0.005 sec
Total time needed                          ...    0.020 sec

-------------------
DFT GRID GENERATION
-------------------

General Integration Accuracy     IntAcc      ... 4.388
Radial Grid Type                 RadialGrid  ... OptM3 with GC (2021)
Angular Grid (max. ang.)         AngularGrid ... 4 (Lebedev-302)
Angular grid pruning method      GridPruning ... 4 (adaptive)
Weight generation scheme         WeightScheme... mBecke (2022)
Basis function cutoff            BFCut       ... 1.0000e-11
Integration weight cutoff        WCut        ... 1.0000e-14
Partially contracted basis set               ... off
Rotationally invariant grid construction     ... off
Angular grids for H and He will be reduced by one unit

Total number of grid points                  ...   131067
Total number of batches                      ...     2064
Average number of points per batch           ...       63
Average number of grid points per atom       ...     4854

--------------------
COSX GRID GENERATION
--------------------

GRIDX 1
-------
General Integration Accuracy     IntAcc      ... 3.816
Radial Grid Type                 RadialGrid  ... OptM3 with GC (2021)
Angular Grid (max. ang.)         AngularGrid ... 1 (Lebedev-50)
Angular grid pruning method      GridPruning ... 4 (adaptive)
Weight generation scheme         WeightScheme... mBecke (2022)
Basis function cutoff            BFCut       ... 1.0000e-11
Integration weight cutoff        WCut        ... 1.0000e-14
Partially contracted basis set               ... on
Rotationally invariant grid construction     ... off
Angular grids for H and He will be reduced by one unit

Total number of grid points                  ...    16649
Total number of batches                      ...      145
Average number of points per batch           ...      114
Average number of grid points per atom       ...      617
UseSFitting                                  ... on

GRIDX 2
-------
General Integration Accuracy     IntAcc      ... 4.020
Radial Grid Type                 RadialGrid  ... OptM3 with GC (2021)
Angular Grid (max. ang.)         AngularGrid ... 2 (Lebedev-110)
Angular grid pruning method      GridPruning ... 4 (adaptive)
Weight generation scheme         WeightScheme... mBecke (2022)
Basis function cutoff            BFCut       ... 1.0000e-11
Integration weight cutoff        WCut        ... 1.0000e-14
Partially contracted basis set               ... on
Rotationally invariant grid construction     ... off
Angular grids for H and He will be reduced by one unit

Total number of grid points                  ...    36580
Total number of batches                      ...      300
Average number of points per batch           ...      121
Average number of grid points per atom       ...     1355
UseSFitting                                  ... on

GRIDX 3
-------
General Integration Accuracy     IntAcc      ... 4.338
Radial Grid Type                 RadialGrid  ... OptM3 with GC (2021)
Angular Grid (max. ang.)         AngularGrid ... 3 (Lebedev-194)
Angular grid pruning method      GridPruning ... 4 (adaptive)
Weight generation scheme         WeightScheme... mBecke (2022)
Basis function cutoff            BFCut       ... 1.0000e-11
Integration weight cutoff        WCut        ... 1.0000e-14
Partially contracted basis set               ... on
Rotationally invariant grid construction     ... off
Angular grids for H and He will be reduced by one unit

Total number of grid points                  ...    80154
Total number of batches                      ...      638
Average number of points per batch           ...      125
Average number of grid points per atom       ...     2969
UseSFitting                                  ... on
Grids setup in   3.6 sec
Initializing property integral containers    ... done (  0.0 sec)

SHARK setup successfully completed in   3.9 seconds

Maximum memory used throughout the entire STARTUP-calculation: 45.8 MB


           ************************************************************
           *        Program running with 2 parallel MPI-processes     *
           *              working on a common directory               *
           ************************************************************
-------------------------------------------------------------------------------
                                 ORCA GUESS
                   Start orbitals & Density for SCF / CASSCF
-------------------------------------------------------------------------------

------------
SCF SETTINGS
------------
Hamiltonian:
 Density Functional     Method          .... DFT(GTOs)
 Exchange Functional    Exchange        .... B88
   X-Alpha parameter    XAlpha          ....  0.666667
   Becke's b parameter  XBeta           ....  0.004200
 Correlation Functional Correlation     .... LYP
 LDA part of GGA corr.  LDAOpt          .... VWN-5
 Gradients option       PostSCFGGA      .... off
 Hybrid DFT is turned on
   Fraction HF Exchange ScalHFX         ....  0.200000
   Scaling of DF-GGA-X  ScalDFX         ....  0.720000
   Scaling of DF-GGA-C  ScalDFC         ....  0.810000
   Scaling of DF-LDA-C  ScalLDAC        ....  1.000000
   Perturbative correction              ....  0.000000
   NL short-range parameter             ....  4.800000
 RI-approximation to the Coulomb term is turned on
   Number of AuxJ basis functions       .... 905
   RIJ-COSX (HFX calculated with COS-X)).... on


General Settings:
 Integral files         IntName         .... /kaggle/working/Trp-F-2/Trp-F_InterFrag
 Hartree-Fock type      HFTyp           .... RHF
 Total Charge           Charge          ....    0
 Multiplicity           Mult            ....    1
 Number of Electrons    NEL             ....  116
 Basis Dimension        Dim             ....  279
 Nuclear Repulsion      ENuc            ....   1093.7010819578 Eh

Convergence Acceleration:
 AO-DIIS                CNVDIIS         .... on
   Start iteration      DIISMaxIt       ....    12
   Startup error        DIISStart       ....  0.200000
   # of expansion vecs  DIISMaxEq       ....     5
   Bias factor          DIISBfac        ....   1.050
   Max. coefficient     DIISMaxC        ....  10.000
 MO-DIIS                CNVKDIIS        .... off
 Trust-Rad. Augm. Hess. CNVTRAH         .... auto
   Auto Start mean grad. ratio tolernc. ....  1.125000
   Auto Start start iteration           ....    50
   Auto Start num. interpolation iter.  ....    10
   Max. Number of Micro iterations      ....    24
   Max. Number of Macro iterations      .... Maxiter - #DIIS iter
   Number of Davidson start vectors     ....     2
   Converg. threshold    (grad. norm)   ....   1.000e-05
   Grad. Scal. Fac. for Micro threshold ....   0.100
   Minimum threshold for Micro iter.    ....   1.000e-02
   NR start threshold (gradient norm)   ....   1.000e-04
   Initial trust radius                 ....   0.400
   Minimum AH scaling param. (alpha)    ....   1.000
   Maximum AH scaling param. (alpha)    .... 1000.000
   Quad. conv. algorithm                .... NR
   White noise on init. David. guess    .... on
   Maximum white noise                  ....   0.010
   Pseudo random numbers                .... off
   Inactive MOs                         .... canonical
   Orbital update algorithm             .... Taylor
   Preconditioner                       .... Diag
   Full preconditioner red. dimension   ....   250
 SOSCF                 CNVSOSCF           .... on
   Start iteration     SOSCFMaxIt         ....   150
   Startup grad/error  SOSCFStart         ....  0.003300
   Hessian update      SOSCFHessUp        .... L-BFGS
   Autom. constraints  SOSCFAutoConstrain .... off
 Level Shifting         CNVShift        .... on
   Level shift para.    LevelShift      ....    0.2500
   Turn off err/grad.   ShiftErr        ....    0.0010
 Zerner damping         CNVZerner       .... off
 Static damping         CNVDamp         .... on
   Fraction old density DampFac         ....    0.7000
   Max. Damping (<1)    DampMax         ....    0.9800
   Min. Damping (>=0)   DampMin         ....    0.0000
   Turn off err/grad.   DampErr         ....    0.1000

SCF Procedure:
 Maximum # iterations   MaxIter         ....   125
 SCF integral mode      SCFMode         .... Direct
   Integral package                     .... SHARK and LIBINT hybrid scheme
 Reset frequency        DirectResetFreq ....    20
 Integral Threshold     Thresh          ....  2.500e-11 Eh
 Primitive CutOff       TCut            ....  2.500e-12 Eh

Convergence Tolerance:
 Convergence Check Mode ConvCheckMode   .... Total+1el-Energy
 Convergence forced     ConvForced      .... 0
 Energy Change          TolE            ....  1.000e-08 Eh
 1-El. energy change                    ....  1.000e-05 Eh
 Orbital Gradient       TolG            ....  1.000e-05
 Orbital Rotation angle TolX            ....  1.000e-05
 DIIS Error             TolErr          ....  5.000e-07

------------------------------
INITIAL GUESS: MODEL POTENTIAL
------------------------------
Loading Hartree-Fock densities                     ... done
Calculating cut-offs                               ... done
Initializing the effective Hamiltonian             ... done
Setting up the integral package (SHARK)            ... done
Starting the Coulomb interaction                   ... done (   0.3 sec)
Making the grid                                    ... done (   0.5 sec)
Mapping shells                                     ... done
Starting the XC term evaluation                    ... done (   0.3 sec)
  promolecular density results
     # of electrons  =    115.995966053
     EX              =    -99.479999540
     EC              =     -4.013406366
     EX+EC           =   -103.493405906
Transforming the Hamiltonian                       ... done (   0.0 sec)
Diagonalizing the Hamiltonian                      ... done (   0.0 sec)
Back transforming the eigenvectors                 ... done (   0.0 sec)
Now organizing SCF variables                       ... done
                      ------------------
                      INITIAL GUESS DONE (   1.2 sec)
                      ------------------
             **** ENERGY FILE WAS UPDATED (/kaggle/working/Trp-F-2/Trp-F_InterFrag.en.tmp) ****
Finished Guess after   1.6 sec
Maximum memory used throughout the entire GUESS-calculation: 18.3 MB


           ************************************************************
           *        Program running with 2 parallel MPI-processes     *
           *              working on a common directory               *
           ************************************************************

-------------------------------------------------------------------------------------------
                                      ORCA LEAN-SCF
                              memory conserving SCF solver
-------------------------------------------------------------------------------------------

----------------------------------------D-I-I-S--------------------------------------------
Iteration    Energy (Eh)           Delta-E    RMSDP     MaxDP     DIISErr   Damp  Time(sec)
-------------------------------------------------------------------------------------------
               ***  Starting incremental Fock matrix formation  ***
    1    -784.7336699572881571     0.00e+00  3.67e-03  9.83e-02  2.68e-01  0.700  10.4
    2    -784.9350947201244253    -2.01e-01  2.48e-03  5.49e-02  1.12e-01  0.700   5.1
                               ***Turning on AO-DIIS***
    3    -785.0127442050236368    -7.76e-02  1.01e-03  1.71e-02  3.49e-02  0.700   5.0
    4    -785.0598833467713575    -4.71e-02  1.79e-03  2.66e-02  1.66e-02  0.000   4.7
    5    -785.1634956401796899    -1.04e-01  3.58e-04  7.67e-03  6.74e-03  0.000   4.9
                              *** Initializing SOSCF ***
---------------------------------------S-O-S-C-F--------------------------------------
Iteration    Energy (Eh)           Delta-E    RMSDP     MaxDP     MaxGrad    Time(sec)
--------------------------------------------------------------------------------------
    6    -785.1641238387257999    -6.28e-04  1.18e-04  2.33e-03  2.06e-03     4.5
               *** Restarting incremental Fock matrix formation ***
    7    -785.1642035870279415    -7.97e-05  9.14e-05  2.39e-03  5.63e-04    10.3
    8    -785.1641894083561510     1.42e-05  4.92e-05  1.76e-03  1.39e-03     7.1
    9    -785.1642107369686983    -2.13e-05  1.68e-05  3.51e-04  9.11e-05     6.7
   10    -785.1642104981149259     2.39e-07  9.37e-06  2.13e-04  1.05e-04     5.9
   11    -785.1642110414902618    -5.43e-07  4.25e-06  7.24e-05  2.02e-05     5.6
   12    -785.1642110269897330     1.45e-08  2.54e-06  4.63e-05  2.76e-05     5.0
   13    -785.1642110627064994    -3.57e-08  9.32e-07  2.18e-05  5.26e-06     4.7
   14    -785.1642110511068040     1.16e-08  6.01e-07  1.49e-05  8.85e-06     3.9
   15    -785.1642110661421157    -1.50e-08  1.44e-07  3.65e-06  9.79e-07     3.6
                  *** Gradient check signals convergence ***

               *****************************************************
               *                     SUCCESS                       *
               *           SCF CONVERGED AFTER  15 CYCLES          *
               *****************************************************

Recomputing exchange energy using gridx3       ... done (   17.397 sec)
Old exchange energy                            :    -20.163865241 Eh
New exchange energy                            :    -20.163858530 Eh
Exchange energy change after final integration :      0.000006711 Eh
Total energy after final integration           :   -785.164204357 Eh
             **** ENERGY FILE WAS UPDATED (/kaggle/working/Trp-F-2/Trp-F_InterFrag.en.tmp) ****

----------------
TOTAL SCF ENERGY
----------------

Total Energy       :       -785.16420435689383 Eh          -21365.40420 eV

Components:
Nuclear Repulsion  :       1093.70108195778380 Eh           29761.11947 eV
Electronic Energy  :      -1878.86529302568442 Eh          -51126.52385 eV
One Electron Energy:      -3244.05604883216347 Eh          -88275.25292 eV
Two Electron Energy:       1365.19075580647905 Eh           37148.72907 eV

Virial components:
Potential Energy   :      -1565.67486563158855 Eh          -42604.17905 eV
Kinetic Energy     :        780.51066127469460 Eh           21238.77485 eV
Virial Ratio       :          2.00596217747314

DFT components:
N(Alpha)           :       58.000030860628 electrons
N(Beta)            :       58.000030860628 electrons
N(Total)           :      116.000061721255 electrons
E(X)               :      -80.139285026815 Eh       
E(C)               :       -4.724443653158 Eh       
E(XC)              :      -84.863728679974 Eh       

---------------
SCF CONVERGENCE
---------------

  Last Energy change         ...    1.5035e-08  Tolerance :   1.0000e-08
  Last MAX-Density change    ...    3.6518e-06  Tolerance :   1.0000e-07
  Last RMS-Density change    ...    1.4357e-07  Tolerance :   5.0000e-09
  Last DIIS Error            ...    2.0639e-03  Tolerance :   5.0000e-07
  Last Orbital Gradient      ...    9.7868e-07  Tolerance :   1.0000e-05
  Last Orbital Rotation      ...    3.3095e-06  Tolerance :   1.0000e-05


----------------
ORBITAL ENERGIES
----------------

  NO   OCC          E(Eh)            E(eV) 
   0   2.0000     -24.675584      -671.4568 
   1   2.0000     -19.185744      -522.0706 
   2   2.0000     -19.123926      -520.3885 
   3   2.0000     -14.376042      -391.1920 
   4   2.0000     -14.314468      -389.5165 
   5   2.0000     -10.304755      -280.4066 
   6   2.0000     -10.248885      -278.8863 
   7   2.0000     -10.220633      -278.1176 
   8   2.0000     -10.214831      -277.9597 
   9   2.0000     -10.212563      -277.8980 
  10   2.0000     -10.189535      -277.2714 
  11   2.0000     -10.188872      -277.2533 
  12   2.0000     -10.180801      -277.0337 
  13   2.0000     -10.180199      -277.0173 
  14   2.0000     -10.176497      -276.9166 
  15   2.0000     -10.175517      -276.8899 
  16   2.0000      -1.188497       -32.3406 
  17   2.0000      -1.095786       -29.8178 
  18   2.0000      -0.999994       -27.2112 
  19   2.0000      -0.978064       -26.6145 
  20   2.0000      -0.892494       -24.2860 
  21   2.0000      -0.839576       -22.8460 
  22   2.0000      -0.800293       -21.7771 
  23   2.0000      -0.747660       -20.3449 
  24   2.0000      -0.729794       -19.8587 
  25   2.0000      -0.716220       -19.4893 
  26   2.0000      -0.671244       -18.2655 
  27   2.0000      -0.624883       -17.0039 
  28   2.0000      -0.597938       -16.2707 
  29   2.0000      -0.585550       -15.9336 
  30   2.0000      -0.555229       -15.1086 
  31   2.0000      -0.540531       -14.7086 
  32   2.0000      -0.508568       -13.8388 
  33   2.0000      -0.503866       -13.7109 
  34   2.0000      -0.487466       -13.2646 
  35   2.0000      -0.475274       -12.9329 
  36   2.0000      -0.465804       -12.6752 
  37   2.0000      -0.455588       -12.3972 
  38   2.0000      -0.450532       -12.2596 
  39   2.0000      -0.436144       -11.8681 
  40   2.0000      -0.434974       -11.8362 
  41   2.0000      -0.423893       -11.5347 
  42   2.0000      -0.416567       -11.3354 
  43   2.0000      -0.413648       -11.2559 
  44   2.0000      -0.396038       -10.7768 
  45   2.0000      -0.388918       -10.5830 
  46   2.0000      -0.382373       -10.4049 
  47   2.0000      -0.366662        -9.9774 
  48   2.0000      -0.361940        -9.8489 
  49   2.0000      -0.357841        -9.7373 
  50   2.0000      -0.328837        -8.9481 
  51   2.0000      -0.320426        -8.7192 
  52   2.0000      -0.306634        -8.3439 
  53   2.0000      -0.271978        -7.4009 
  54   2.0000      -0.261476        -7.1151 
  55   2.0000      -0.243328        -6.6213 
  56   2.0000      -0.213696        -5.8150 
  57   2.0000      -0.200924        -5.4674 
  58   0.0000      -0.012258        -0.3336 
  59   0.0000       0.010743         0.2923 
  60   0.0000       0.035261         0.9595 
  61   0.0000       0.060892         1.6570 
  62   0.0000       0.076029         2.0689 
  63   0.0000       0.081056         2.2056 
  64   0.0000       0.088261         2.4017 
  65   0.0000       0.107060         2.9133 
  66   0.0000       0.127168         3.4604 
  67   0.0000       0.142851         3.8872 
  68   0.0000       0.147932         4.0254 
  69   0.0000       0.160208         4.3595 
  70   0.0000       0.165063         4.4916 
  71   0.0000       0.179239         4.8773 
  72   0.0000       0.182550         4.9674 
  73   0.0000       0.183943         5.0053 
  74   0.0000       0.204426         5.5627 
  75   0.0000       0.216557         5.8928 
  76   0.0000       0.241692         6.5768 
  77   0.0000       0.250529         6.8172 
  78   0.0000       0.260015         7.0754 
  79   0.0000       0.260791         7.0965 
  80   0.0000       0.274824         7.4783 
  81   0.0000       0.286390         7.7931 
  82   0.0000       0.325334         8.8528 
  83   0.0000       0.339450         9.2369 
  84   0.0000       0.351571         9.5667 
  85   0.0000       0.374134        10.1807 
  86   0.0000       0.383583        10.4378 
  87   0.0000       0.410750        11.1771 
  88   0.0000       0.454732        12.3739 
  89   0.0000       0.493263        13.4224 
  90   0.0000       0.498958        13.5773 
  91   0.0000       0.510877        13.9017 
  92   0.0000       0.523272        14.2390 
  93   0.0000       0.531698        14.4683 
  94   0.0000       0.537564        14.6279 
  95   0.0000       0.544940        14.8286 
  96   0.0000       0.557779        15.1779 
  97   0.0000       0.569918        15.5082 
  98   0.0000       0.580356        15.7923 
  99   0.0000       0.597213        16.2510 
 100   0.0000       0.603136        16.4122 
 101   0.0000       0.604846        16.4587 
 102   0.0000       0.610036        16.5999 
 103   0.0000       0.622636        16.9428 
 104   0.0000       0.630606        17.1597 
 105   0.0000       0.637795        17.3553 
 106   0.0000       0.645509        17.5652 
 107   0.0000       0.652930        17.7671 
 108   0.0000       0.661126        17.9902 
 109   0.0000       0.677338        18.4313 
 110   0.0000       0.683102        18.5882 
 111   0.0000       0.698037        18.9946 
 112   0.0000       0.728765        19.8307 
 113   0.0000       0.738599        20.0983 
 114   0.0000       0.745893        20.2968 
 115   0.0000       0.770844        20.9757 
 116   0.0000       0.788216        21.4485 
 117   0.0000       0.790514        21.5110 
 118   0.0000       0.796008        21.6605 
 119   0.0000       0.804633        21.8952 
 120   0.0000       0.814122        22.1534 
 121   0.0000       0.823358        22.4047 
 122   0.0000       0.830234        22.5918 
 123   0.0000       0.840424        22.8691 
 124   0.0000       0.853914        23.2362 
 125   0.0000       0.864308        23.5190 
 126   0.0000       0.872174        23.7331 
 127   0.0000       0.879709        23.9381 
 128   0.0000       0.888025        24.1644 
 129   0.0000       0.905087        24.6287 
 130   0.0000       0.909567        24.7506 
 131   0.0000       0.931654        25.3516 
 132   0.0000       0.946397        25.7528 
 133   0.0000       0.952893        25.9295 
 134   0.0000       0.959394        26.1064 
 135   0.0000       0.979761        26.6606 
 136   0.0000       0.984283        26.7837 
 137   0.0000       1.002161        27.2702 
 138   0.0000       1.019280        27.7360 
 139   0.0000       1.038483        28.2586 
 140   0.0000       1.059659        28.8348 
 141   0.0000       1.086752        29.5720 
 142   0.0000       1.096258        29.8307 
 143   0.0000       1.104708        30.0606 
 144   0.0000       1.132676        30.8217 
 145   0.0000       1.139046        30.9950 
 146   0.0000       1.140945        31.0467 
 147   0.0000       1.173891        31.9432 
 148   0.0000       1.213300        33.0156 
 149   0.0000       1.214768        33.0555 
 150   0.0000       1.233613        33.5683 
 151   0.0000       1.242553        33.8116 
 152   0.0000       1.251936        34.0669 
 153   0.0000       1.304716        35.5031 
 154   0.0000       1.321375        35.9564 
 155   0.0000       1.327603        36.1259 
 156   0.0000       1.341099        36.4932 
 157   0.0000       1.356208        36.9043 
 158   0.0000       1.364936        37.1418 
 159   0.0000       1.387383        37.7526 
 160   0.0000       1.392825        37.9007 
 161   0.0000       1.407151        38.2905 
 162   0.0000       1.417945        38.5842 
 163   0.0000       1.429435        38.8969 
 164   0.0000       1.458687        39.6929 
 165   0.0000       1.460848        39.7517 
 166   0.0000       1.465355        39.8743 
 167   0.0000       1.488616        40.5073 
 168   0.0000       1.512090        41.1461 
 169   0.0000       1.518661        41.3249 
 170   0.0000       1.567390        42.6508 
 171   0.0000       1.597619        43.4734 
 172   0.0000       1.608426        43.7675 
 173   0.0000       1.636469        44.5306 
 174   0.0000       1.690673        46.0056 
 175   0.0000       1.718418        46.7605 
 176   0.0000       1.725811        46.9617 
 177   0.0000       1.753021        47.7021 
 178   0.0000       1.767526        48.0968 
 179   0.0000       1.775764        48.3210 
 180   0.0000       1.792905        48.7874 
 181   0.0000       1.800054        48.9820 
 182   0.0000       1.815501        49.4023 
 183   0.0000       1.829988        49.7965 
 184   0.0000       1.850627        50.3581 
 185   0.0000       1.853252        50.4295 
 186   0.0000       1.857148        50.5356 
 187   0.0000       1.859397        50.5968 
 188   0.0000       1.874353        51.0037 
 189   0.0000       1.884084        51.2685 
 190   0.0000       1.892934        51.5094 
 191   0.0000       1.908605        51.9358 
 192   0.0000       1.914301        52.0908 
 193   0.0000       1.928749        52.4839 
 194   0.0000       1.946560        52.9686 
 195   0.0000       1.955631        53.2154 
 196   0.0000       1.968666        53.5701 
 197   0.0000       1.973290        53.6960 
 198   0.0000       1.991141        54.1817 
 199   0.0000       2.005641        54.5763 
 200   0.0000       2.024872        55.0996 
 201   0.0000       2.042893        55.5900 
 202   0.0000       2.054816        55.9144 
 203   0.0000       2.098294        57.0975 
 204   0.0000       2.106412        57.3184 
 205   0.0000       2.126003        57.8515 
 206   0.0000       2.133185        58.0469 
 207   0.0000       2.138732        58.1979 
 208   0.0000       2.171925        59.1011 
 209   0.0000       2.203397        59.9575 
 210   0.0000       2.219222        60.3881 
 211   0.0000       2.229122        60.6575 
 212   0.0000       2.240826        60.9760 
 213   0.0000       2.255364        61.3716 
 214   0.0000       2.271692        61.8159 
 215   0.0000       2.287757        62.2530 
 216   0.0000       2.292731        62.3884 
 217   0.0000       2.301465        62.6260 
 218   0.0000       2.310973        62.8848 
 219   0.0000       2.328077        63.3502 
 220   0.0000       2.342011        63.7294 
 221   0.0000       2.352430        64.0129 
 222   0.0000       2.371775        64.5393 
 223   0.0000       2.378820        64.7310 
 224   0.0000       2.394438        65.1560 
 225   0.0000       2.407117        65.5010 
 226   0.0000       2.425966        66.0139 
 227   0.0000       2.430679        66.1421 
 228   0.0000       2.458098        66.8882 
 229   0.0000       2.474528        67.3353 
 230   0.0000       2.483936        67.5913 
 231   0.0000       2.513665        68.4003 
 232   0.0000       2.523843        68.6773 
 233   0.0000       2.534791        68.9752 
 234   0.0000       2.547848        69.3305 
 235   0.0000       2.557260        69.5866 
 236   0.0000       2.575681        70.0878 
 237   0.0000       2.582172        70.2645 
 238   0.0000       2.595958        70.6396 
 239   0.0000       2.606872        70.9366 
 240   0.0000       2.622776        71.3694 
 241   0.0000       2.654816        72.2412 
 242   0.0000       2.667386        72.5833 
 243   0.0000       2.695295        73.3427 
 244   0.0000       2.705555        73.6219 
 245   0.0000       2.728566        74.2481 
 246   0.0000       2.730074        74.2891 
 247   0.0000       2.749716        74.8236 
 248   0.0000       2.761970        75.1570 
 249   0.0000       2.776929        75.5641 
 250   0.0000       2.791892        75.9713 
 251   0.0000       2.800011        76.1922 
 252   0.0000       2.834185        77.1221 
 253   0.0000       2.846615        77.4603 
 254   0.0000       2.876478        78.2729 
 255   0.0000       2.901105        78.9431 
 256   0.0000       2.910496        79.1986 
 257   0.0000       2.939215        79.9801 
 258   0.0000       2.969898        80.8150 
 259   0.0000       3.006222        81.8035 
 260   0.0000       3.020127        82.1818 
 261   0.0000       3.092071        84.1395 
 262   0.0000       3.094233        84.1984 
 263   0.0000       3.109227        84.6064 
 264   0.0000       3.168241        86.2122 
 265   0.0000       3.177615        86.4673 
 266   0.0000       3.215727        87.5044 
 267   0.0000       3.279630        89.2433 
 268   0.0000       3.301458        89.8372 
 269   0.0000       3.328382        90.5699 
 270   0.0000       3.340794        90.9076 
 271   0.0000       3.397804        92.4590 
 272   0.0000       3.442243        93.6682 
 273   0.0000       3.461553        94.1937 
 274   0.0000       3.497621        95.1751 
 275   0.0000       3.510282        95.5196 
 276   0.0000       3.542768        96.4036 
 277   0.0000       3.761494       102.3555 
 278   0.0000       3.817704       103.8850 

                    ********************************
                    * MULLIKEN POPULATION ANALYSIS *
                    ********************************

-----------------------
MULLIKEN ATOMIC CHARGES
-----------------------
   0 F :   -0.334165
   1 O :   -0.467812
   2 O :   -0.430856
   3 N :   -0.552963
   4 N :   -0.553124
   5 C :    0.038249
   6 C :   -0.243404
   7 C :    0.062570
   8 C :    0.002797
   9 C :    0.244642
  10 C :    0.037305
  11 C :   -0.226153
  12 C :   -0.094070
  13 C :    0.372502
  14 C :    0.531804
  15 C :   -0.167173
  16 H :    0.094502
  17 H :    0.136127
  18 H :    0.093006
  19 H :    0.101244
  20 H :    0.261273
  21 H :    0.120230
  22 H :    0.082905
  23 H :    0.237588
  24 H :    0.232118
  25 H :    0.095236
  26 H :    0.325624
Sum of atomic charges:   -0.0000000

--------------------------------
MULLIKEN REDUCED ORBITAL CHARGES
--------------------------------
  0 F s       :     3.972261  s :     3.972261
      pz      :     1.901137  p :     5.345162
      px      :     1.908360
      py      :     1.535665
      dz2     :     0.002063  d :     0.016742
      dxz     :     0.000407
      dyz     :     0.004385
      dx2y2   :     0.005538
      dxy     :     0.004349

  1 O s       :     3.824128  s :     3.824128
      pz      :     1.461516  p :     4.620302
      px      :     1.608231
      py      :     1.550555
      dz2     :     0.006698  d :     0.023382
      dxz     :     0.003911
      dyz     :     0.004705
      dx2y2   :     0.003621
      dxy     :     0.004447

  2 O s       :     3.864730  s :     3.864730
      pz      :     1.614722  p :     4.538323
      px      :     1.512651
      py      :     1.410950
      dz2     :     0.004230  d :     0.027804
      dxz     :     0.001916
      dyz     :     0.007792
      dx2y2   :     0.006124
      dxy     :     0.007742

  3 N s       :     3.595862  s :     3.595862
      pz      :     1.547435  p :     3.921076
      px      :     1.191732
      py      :     1.181910
      dz2     :     0.003398  d :     0.036025
      dxz     :     0.006748
      dyz     :     0.005986
      dx2y2   :     0.009466
      dxy     :     0.010427

  4 N s       :     3.630194  s :     3.630194
      pz      :     1.409809  p :     3.892072
      px      :     1.079223
      py      :     1.403039
      dz2     :     0.004282  d :     0.030858
      dxz     :     0.011110
      dyz     :     0.003102
      dx2y2   :     0.006438
      dxy     :     0.005926

  5 C s       :     3.125158  s :     3.125158
      pz      :     1.015743  p :     2.796026
      px      :     0.887448
      py      :     0.892835
      dz2     :     0.004214  d :     0.040567
      dxz     :     0.005997
      dyz     :     0.007373
      dx2y2   :     0.011179
      dxy     :     0.011804

  6 C s       :     3.239014  s :     3.239014
      pz      :     0.981076  p :     2.965926
      px      :     0.952883
      py      :     1.031967
      dz2     :     0.004271  d :     0.038464
      dxz     :     0.009323
      dyz     :     0.010485
      dx2y2   :     0.006855
      dxy     :     0.007529

  7 C s       :     3.141178  s :     3.141178
      pz      :     0.992820  p :     2.754002
      px      :     0.897472
      py      :     0.863710
      dz2     :     0.004378  d :     0.042250
      dxz     :     0.006192
      dyz     :     0.008005
      dx2y2   :     0.009740
      dxy     :     0.013936

  8 C s       :     3.175862  s :     3.175862
      pz      :     0.958362  p :     2.764197
      px      :     0.849214
      py      :     0.956622
      dz2     :     0.007174  d :     0.057144
      dxz     :     0.012568
      dyz     :     0.014786
      dx2y2   :     0.012039
      dxy     :     0.010577

  9 C s       :     3.058403  s :     3.058403
      pz      :     1.008216  p :     2.639690
      px      :     0.868715
      py      :     0.762758
      dz2     :     0.005810  d :     0.057265
      dxz     :     0.008004
      dyz     :     0.010902
      dx2y2   :     0.015759
      dxy     :     0.016790

 10 C s       :     3.095586  s :     3.095586
      pz      :     1.023014  p :     2.815994
      px      :     0.788117
      py      :     1.004863
      dz2     :     0.007287  d :     0.051115
      dxz     :     0.009575
      dyz     :     0.005239
      dx2y2   :     0.016148
      dxy     :     0.012865

 11 C s       :     3.192652  s :     3.192652
      pz      :     1.037637  p :     2.999885
      px      :     0.949924
      py      :     1.012324
      dz2     :     0.003000  d :     0.033616
      dxz     :     0.005126
      dyz     :     0.005789
      dx2y2   :     0.009507
      dxy     :     0.010194

 12 C s       :     3.145358  s :     3.145358
      pz      :     1.020960  p :     2.913668
      px      :     0.946972
      py      :     0.945736
      dz2     :     0.002824  d :     0.035044
      dxz     :     0.005230
      dyz     :     0.006399
      dx2y2   :     0.009433
      dxy     :     0.011158

 13 C s       :     3.100835  s :     3.100835
      pz      :     0.989154  p :     2.455173
      px      :     0.887413
      py      :     0.578606
      dz2     :     0.006861  d :     0.071491
      dxz     :     0.008122
      dyz     :     0.013501
      dx2y2   :     0.022496
      dxy     :     0.020511

 14 C s       :     2.987903  s :     2.987903
      pz      :     0.724807  p :     2.357891
      px      :     0.770629
      py      :     0.862455
      dz2     :     0.032236  d :     0.122401
      dxz     :     0.017868
      dyz     :     0.030610
      dx2y2   :     0.019120
      dxy     :     0.022567

 15 C s       :     3.191507  s :     3.191507
      pz      :     1.032600  p :     2.942203
      px      :     0.950655
      py      :     0.958949
      dz2     :     0.003999  d :     0.033462
      dxz     :     0.003518
      dyz     :     0.006375
      dx2y2   :     0.008190
      dxy     :     0.011379

 16 H s       :     0.893891  s :     0.893891
      pz      :     0.003344  p :     0.011607
      px      :     0.003141
      py      :     0.005122

 17 H s       :     0.852518  s :     0.852518
      pz      :     0.004693  p :     0.011355
      px      :     0.002056
      py      :     0.004606

 18 H s       :     0.896137  s :     0.896137
      pz      :     0.004943  p :     0.010857
      px      :     0.001647
      py      :     0.004267

 19 H s       :     0.886180  s :     0.886180
      pz      :     0.002976  p :     0.012577
      px      :     0.003656
      py      :     0.005945

 20 H s       :     0.713793  s :     0.713793
      pz      :     0.008353  p :     0.024934
      px      :     0.006314
      py      :     0.010267

 21 H s       :     0.867148  s :     0.867148
      pz      :     0.003546  p :     0.012622
      px      :     0.004818
      py      :     0.004258

 22 H s       :     0.904663  s :     0.904663
      pz      :     0.003649  p :     0.012433
      px      :     0.004931
      py      :     0.003853

 23 H s       :     0.738655  s :     0.738655
      pz      :     0.008733  p :     0.023757
      px      :     0.007706
      py      :     0.007319

 24 H s       :     0.744029  s :     0.744029
      pz      :     0.008043  p :     0.023853
      px      :     0.005304
      py      :     0.010506

 25 H s       :     0.892306  s :     0.892306
      pz      :     0.003021  p :     0.012458
      px      :     0.006617
      py      :     0.002819

 26 H s       :     0.636881  s :     0.636881
      pz      :     0.008290  p :     0.037494
      px      :     0.010951
      py      :     0.018253


------------------------
MULLIKEN OVERLAP CHARGES
------------------------
B(  0-F , 11-C ) :  -0.0789 B(  0-F , 13-C ) :   0.5358 B(  0-F , 15-C ) :  -0.0830 
B(  1-O ,  2-O ) :  -0.1653 B(  1-O ,  8-C ) :  -0.1628 B(  1-O , 14-C ) :   0.5670 
B(  1-O , 26-H ) :   0.5488 B(  2-O ,  8-C ) :  -0.1665 B(  2-O , 14-C ) :   1.2263 
B(  3-N ,  5-C ) :  -0.1041 B(  3-N ,  7-C ) :  -0.1126 B(  3-N ,  9-C ) :   0.6055 
B(  3-N , 10-C ) :   0.6740 B(  3-N , 12-C ) :  -0.1715 B(  3-N , 19-H ) :  -0.0913 
B(  3-N , 20-H ) :   0.7114 B(  4-N ,  6-C ) :  -0.0852 B(  4-N ,  8-C ) :   0.5908 
B(  4-N , 14-C ) :  -0.0881 B(  4-N , 18-H ) :  -0.0924 B(  4-N , 23-H ) :   0.6658 
B(  4-N , 24-H ) :   0.6623 B(  5-C ,  6-C ) :   0.6509 B(  5-C ,  7-C ) :   0.8392 
B(  5-C ,  8-C ) :  -0.0726 B(  5-C , 10-C ) :   0.9926 B(  5-C , 11-C ) :  -0.1922 
B(  5-C , 16-H ) :  -0.0541 B(  5-C , 19-H ) :  -0.0605 B(  6-C ,  7-C ) :  -0.1089 
B(  6-C ,  8-C ) :   0.6547 B(  6-C , 10-C ) :  -0.1697 B(  6-C , 16-H ) :   0.7378 
B(  6-C , 17-H ) :   0.7248 B(  6-C , 18-H ) :  -0.1021 B(  7-C ,  9-C ) :   0.9042 
B(  7-C , 11-C ) :   0.7507 B(  7-C , 12-C ) :  -0.0906 B(  7-C , 15-C ) :  -0.0603 
B(  7-C , 21-H ) :  -0.0761 B(  8-C , 14-C ) :   0.5487 B(  8-C , 16-H ) :  -0.0796 
B(  8-C , 17-H ) :  -0.0815 B(  8-C , 18-H ) :   0.7447 B(  8-C , 23-H ) :  -0.0669 
B(  8-C , 24-H ) :  -0.0671 B(  9-C , 10-C ) :  -0.2727 B(  9-C , 11-C ) :  -0.1429 
B(  9-C , 12-C ) :   0.9623 B(  9-C , 13-C ) :  -0.0800 B(  9-C , 20-H ) :  -0.0587 
B(  9-C , 22-H ) :  -0.0690 B( 10-C , 19-H ) :   0.7438 B( 10-C , 20-H ) :  -0.0628 
B( 11-C , 12-C ) :  -0.1015 B( 11-C , 13-C ) :   0.9109 B( 11-C , 15-C ) :  -0.1411 
B( 11-C , 21-H ) :   0.7044 B( 12-C , 15-C ) :   0.9186 B( 12-C , 22-H ) :   0.7125 
B( 12-C , 25-H ) :  -0.0750 B( 13-C , 15-C ) :   0.9436 B( 13-C , 21-H ) :  -0.0649 
B( 13-C , 25-H ) :  -0.0652 B( 14-C , 18-H ) :  -0.1109 B( 15-C , 22-H ) :  -0.0687 
B( 15-C , 25-H ) :   0.7173 B( 16-H , 17-H ) :  -0.0644 B( 23-H , 24-H ) :  -0.0646 



                     *******************************
                     * LOEWDIN POPULATION ANALYSIS *
                     *******************************

----------------------
LOEWDIN ATOMIC CHARGES
----------------------
   0 F :   -0.120162
   1 O :   -0.147741
   2 O :   -0.233055
   3 N :   -0.031381
   4 N :   -0.254696
   5 C :   -0.074891
   6 C :   -0.105820
   7 C :   -0.026936
   8 C :   -0.038680
   9 C :    0.010711
  10 C :   -0.042575
  11 C :   -0.112928
  12 C :   -0.090310
  13 C :    0.105809
  14 C :    0.142024
  15 C :   -0.108794
  16 H :    0.072922
  17 H :    0.088124
  18 H :    0.057677
  19 H :    0.072594
  20 H :    0.151738
  21 H :    0.090731
  22 H :    0.073498
  23 H :    0.128097
  24 H :    0.123906
  25 H :    0.082398
  26 H :    0.187740

-------------------------------
LOEWDIN REDUCED ORBITAL CHARGES
-------------------------------
  0 F s       :     3.738070  s :     3.738070
      pz      :     1.894844  p :     5.348377
      px      :     1.902325
      py      :     1.551209
      dz2     :     0.004137  d :     0.033715
      dxz     :     0.000801
      dyz     :     0.009077
      dx2y2   :     0.011138
      dxy     :     0.008562

  1 O s       :     3.475479  s :     3.475479
      pz      :     1.479492  p :     4.622802
      px      :     1.594088
      py      :     1.549223
      dz2     :     0.014180  d :     0.049460
      dxz     :     0.011384
      dyz     :     0.010081
      dx2y2   :     0.005774
      dxy     :     0.008041

  2 O s       :     3.562723  s :     3.562723
      pz      :     1.620858  p :     4.614878
      px      :     1.499614
      py      :     1.494407
      dz2     :     0.007732  d :     0.055454
      dxz     :     0.002867
      dyz     :     0.017633
      dx2y2   :     0.015991
      dxy     :     0.011232

  3 N s       :     3.063511  s :     3.063511
      pz      :     1.497321  p :     3.879933
      px      :     1.206451
      py      :     1.176162
      dz2     :     0.006042  d :     0.087937
      dxz     :     0.015424
      dyz     :     0.012351
      dx2y2   :     0.027572
      dxy     :     0.026549

  4 N s       :     3.218155  s :     3.218155
      pz      :     1.429570  p :     3.977712
      px      :     1.129083
      py      :     1.419059
      dz2     :     0.006291  d :     0.058830
      dxz     :     0.021590
      dyz     :     0.006113
      dx2y2   :     0.012968
      dxy     :     0.011868

  5 C s       :     2.865996  s :     2.865996
      pz      :     1.052150  p :     3.108383
      px      :     1.017255
      py      :     1.038978
      dz2     :     0.008588  d :     0.100513
      dxz     :     0.012417
      dyz     :     0.017284
      dx2y2   :     0.030932
      dxy     :     0.031291

  6 C s       :     2.889298  s :     2.889298
      pz      :     1.041470  p :     3.132433
      px      :     1.020704
      py      :     1.070258
      dz2     :     0.008672  d :     0.084090
      dxz     :     0.022433
      dyz     :     0.021468
      dx2y2   :     0.015160
      dxy     :     0.016357

  7 C s       :     2.860125  s :     2.860125
      pz      :     1.008249  p :     3.061341
      px      :     1.019458
      py      :     1.033633
      dz2     :     0.009087  d :     0.105470
      dxz     :     0.013725
      dyz     :     0.017823
      dx2y2   :     0.026327
      dxy     :     0.038508

  8 C s       :     2.883927  s :     2.883927
      pz      :     1.037970  p :     3.027574
      px      :     0.954908
      py      :     1.034696
      dz2     :     0.014394  d :     0.127180
      dxz     :     0.028925
      dyz     :     0.033537
      dx2y2   :     0.026547
      dxy     :     0.023776

  9 C s       :     2.842854  s :     2.842854
      pz      :     1.022204  p :     3.008097
      px      :     1.048092
      py      :     0.937801
      dz2     :     0.012634  d :     0.138338
      dxz     :     0.017337
      dyz     :     0.024403
      dx2y2   :     0.039701
      dxy     :     0.044264

 10 C s       :     2.887200  s :     2.887200
      pz      :     1.031516  p :     3.038945
      px      :     0.940093
      py      :     1.067336
      dz2     :     0.015033  d :     0.116430
      dxz     :     0.021988
      dyz     :     0.011056
      dx2y2   :     0.039272
      dxy     :     0.029081

 11 C s       :     2.896030  s :     2.896030
      pz      :     1.034167  p :     3.135758
      px      :     1.050936
      py      :     1.050655
      dz2     :     0.006214  d :     0.081141
      dxz     :     0.010618
      dyz     :     0.012326
      dx2y2   :     0.025791
      dxy     :     0.026191

 12 C s       :     2.888921  s :     2.888921
      pz      :     1.023218  p :     3.116414
      px      :     1.038607
      py      :     1.054588
      dz2     :     0.005760  d :     0.084975
      dxz     :     0.010990
      dyz     :     0.014022
      dx2y2   :     0.025723
      dxy     :     0.028480

 13 C s       :     2.865389  s :     2.865389
      pz      :     1.007047  p :     2.851714
      px      :     1.062875
      py      :     0.781791
      dz2     :     0.016374  d :     0.177088
      dxz     :     0.018034
      dyz     :     0.030668
      dx2y2   :     0.057337
      dxy     :     0.054676

 14 C s       :     2.855135  s :     2.855135
      pz      :     0.870635  p :     2.716845
      px      :     0.814155
      py      :     1.032055
      dz2     :     0.074822  d :     0.285995
      dxz     :     0.041245
      dyz     :     0.074105
      dx2y2   :     0.045672
      dxy     :     0.050151

 15 C s       :     2.898031  s :     2.898031
      pz      :     1.033315  p :     3.129627
      px      :     1.046623
      py      :     1.049688
      dz2     :     0.008048  d :     0.081137
      dxz     :     0.007216
      dyz     :     0.015049
      dx2y2   :     0.022165
      dxy     :     0.028658

 16 H s       :     0.888586  s :     0.888586
      pz      :     0.010432  p :     0.038493
      px      :     0.010178
      py      :     0.017883

 17 H s       :     0.872117  s :     0.872117
      pz      :     0.017277  p :     0.039759
      px      :     0.006487
      py      :     0.015995

 18 H s       :     0.901977  s :     0.901977
      pz      :     0.018239  p :     0.040345
      px      :     0.006104
      py      :     0.016002

 19 H s       :     0.885196  s :     0.885196
      pz      :     0.008773  p :     0.042210
      px      :     0.012523
      py      :     0.020914

 20 H s       :     0.767385  s :     0.767385
      pz      :     0.024949  p :     0.080877
      px      :     0.020651
      py      :     0.035277

 21 H s       :     0.866209  s :     0.866209
      pz      :     0.011440  p :     0.043060
      px      :     0.016744
      py      :     0.014876

 22 H s       :     0.885914  s :     0.885914
      pz      :     0.011077  p :     0.040588
      px      :     0.016570
      py      :     0.012941

 23 H s       :     0.795082  s :     0.795082
      pz      :     0.031161  p :     0.076821
      px      :     0.025315
      py      :     0.020344

 24 H s       :     0.798827  s :     0.798827
      pz      :     0.023373  p :     0.077267
      px      :     0.015230
      py      :     0.038664

 25 H s       :     0.876409  s :     0.876409
      pz      :     0.009206  p :     0.041193
      px      :     0.022944
      py      :     0.009042

 26 H s       :     0.698460  s :     0.698460
      pz      :     0.023777  p :     0.113799
      px      :     0.032020
      py      :     0.058002


---------------------------------
LOEWDIN BOND ORDERS (THRESH 0.050000)
---------------------------------
B(  0-F , 11-C ) :   0.0964 B(  0-F , 13-C ) :   1.2327 B(  0-F , 15-C ) :   0.0845 
B(  1-O ,  2-O ) :   0.2068 B(  1-O ,  8-C ) :   0.0656 B(  1-O , 14-C ) :   1.3967 
B(  1-O , 26-H ) :   0.9844 B(  2-O ,  8-C ) :   0.0851 B(  2-O , 14-C ) :   2.2091 
B(  3-N ,  5-C ) :   0.1488 B(  3-N ,  7-C ) :   0.1064 B(  3-N ,  9-C ) :   1.2549 
B(  3-N , 10-C ) :   1.2952 B(  3-N , 12-C ) :   0.0709 B(  3-N , 20-H ) :   0.9433 
B(  4-N ,  6-C ) :   0.0531 B(  4-N ,  8-C ) :   1.1428 B(  4-N , 14-C ) :   0.0554 
B(  4-N , 23-H ) :   0.9862 B(  4-N , 24-H ) :   0.9853 B(  5-C ,  6-C ) :   1.0541 
B(  5-C ,  7-C ) :   1.2108 B(  5-C ,  9-C ) :   0.0825 B(  5-C , 10-C ) :   1.5816 
B(  5-C , 11-C ) :   0.0594 B(  6-C ,  8-C ) :   0.9924 B(  6-C , 10-C ) :   0.0633 
B(  6-C , 14-C ) :   0.0531 B(  6-C , 16-H ) :   0.9204 B(  6-C , 17-H ) :   0.9206 
B(  7-C ,  9-C ) :   1.2459 B(  7-C , 10-C ) :   0.0903 B(  7-C , 11-C ) :   1.3463 
B(  7-C , 12-C ) :   0.0661 B(  7-C , 13-C ) :   0.0858 B(  7-C , 15-C ) :   0.0794 
B(  8-C , 14-C ) :   0.9824 B(  8-C , 18-H ) :   0.9040 B(  9-C , 10-C ) :   0.1242 
B(  9-C , 11-C ) :   0.0648 B(  9-C , 12-C ) :   1.3839 B(  9-C , 13-C ) :   0.0712 
B(  9-C , 15-C ) :   0.0834 B( 10-C , 19-H ) :   0.9335 B( 11-C , 12-C ) :   0.1104 
B( 11-C , 13-C ) :   1.4981 B( 11-C , 15-C ) :   0.0725 B( 11-C , 21-H ) :   0.9113 
B( 12-C , 13-C ) :   0.0790 B( 12-C , 15-C ) :   1.5144 B( 12-C , 22-H ) :   0.9220 
B( 13-C , 15-C ) :   1.3757 B( 14-C , 26-H ) :   0.0568 B( 15-C , 25-H ) :   0.9205 


------------------------------------------
LOEWDIN REDUCED ORBITAL POPULATIONS PER MO
-------------------------------------------
THRESHOLD FOR PRINTING IS 0.1%%
                      0         1         2         3         4         5   
                 -24.67558 -19.18574 -19.12393 -14.37604 -14.31447 -10.30475
                   2.00000   2.00000   2.00000   2.00000   2.00000   2.00000
                  --------  --------  --------  --------  --------  --------
 0 F  s             100.0       0.0       0.0       0.0       0.0       0.0
 1 O  s               0.0      99.9       0.0       0.0       0.0       0.0
 1 O  pz              0.0       0.0       0.0       0.0       0.0       0.2
 2 O  s               0.0       0.0      99.8       0.0       0.0       0.1
 2 O  py              0.0       0.0       0.0       0.0       0.0       0.3
 3 N  s               0.0       0.0       0.0      99.6       0.0       0.0
 4 N  s               0.0       0.0       0.0       0.0      99.7       0.0
14 C  s               0.0       0.0       0.0       0.0       0.0      98.9

                      6         7         8         9        10        11   
                 -10.24889 -10.22063 -10.21483 -10.21256 -10.18954 -10.18887
                   2.00000   2.00000   2.00000   2.00000   2.00000   2.00000
                  --------  --------  --------  --------  --------  --------
 0 F  py              0.1       0.0       0.0       0.0       0.0       0.0
 3 N  px              0.0       0.0       0.2       0.0       0.0       0.0
[...]
 16 H      0.9055     1.0000     0.0945     0.9565     0.9565    -0.0000
 17 H      0.8639     1.0000     0.1361     0.9530     0.9530    -0.0000
 18 H      0.9070     1.0000     0.0930     0.9520     0.9520    -0.0000
 19 H      0.8988     1.0000     0.1012     0.9597     0.9597    -0.0000
 20 H      0.7387     1.0000     0.2613     0.9230     0.9230    -0.0000
 21 H      0.8798     1.0000     0.1202     0.9696     0.9696    -0.0000
 22 H      0.9171     1.0000     0.0829     0.9584     0.9584    -0.0000
 23 H      0.7624     1.0000     0.2376     0.9195     0.9195    -0.0000
 24 H      0.7679     1.0000     0.2321     0.9231     0.9231    -0.0000
 25 H      0.9048     1.0000     0.0952     0.9615     0.9615     0.0000
 26 H      0.6744     1.0000     0.3256     0.9127     0.9127    -0.0000

  Mayer bond orders larger than 0.100000
B(  0-F , 13-C ) :   0.8784 B(  1-O , 14-C ) :   1.0842 B(  1-O , 26-H ) :   0.8508 
B(  2-O , 14-C ) :   1.9163 B(  3-N ,  9-C ) :   1.0136 B(  3-N , 10-C ) :   1.0918 
B(  3-N , 20-H ) :   0.8979 B(  4-N ,  8-C ) :   1.0035 B(  4-N , 23-H ) :   0.9097 
B(  4-N , 24-H ) :   0.9077 B(  5-C ,  6-C ) :   0.9962 B(  5-C ,  7-C ) :   1.2735 
B(  5-C , 10-C ) :   1.5562 B(  6-C ,  8-C ) :   0.9615 B(  6-C , 16-H ) :   0.9428 
B(  6-C , 17-H ) :   0.9330 B(  7-C ,  9-C ) :   1.2900 B(  7-C , 11-C ) :   1.2980 
B(  8-C , 14-C ) :   0.9174 B(  8-C , 18-H ) :   0.9311 B(  9-C , 12-C ) :   1.3599 
B( 10-C , 19-H ) :   0.9427 B( 11-C , 13-C ) :   1.4341 B( 11-C , 21-H ) :   0.9199 
B( 12-C , 15-C ) :   1.4499 B( 12-C , 22-H ) :   0.9365 B( 13-C , 15-C ) :   1.3414 
B( 15-C , 25-H ) :   0.9359 

-------
TIMINGS
-------

Total SCF time: 0 days 0 hours 1 min 48 sec 

Total time                  ....     108.438 sec
Sum of individual times     ....     105.602 sec  ( 97.4%)

SCF preparation             ....       0.423 sec  (  0.4%)
Fock matrix formation       ....     104.088 sec  ( 96.0%)
  Startup                   ....       0.009 sec  (  0.0% of F)
  Split-RI-J                ....      11.290 sec  ( 10.8% of F)
  Chain of spheres X        ....      81.904 sec  ( 78.7% of F)
  XC integration            ....      13.540 sec  ( 13.0% of F)
    XC Preparation          ....       0.000 sec  (  0.0% of XC)
    Basis function eval.    ....       4.818 sec  ( 35.6% of XC)
    Density eval.           ....       3.709 sec  ( 27.4% of XC)
    XC-Functional eval.     ....       0.603 sec  (  4.5% of XC)
    XC-Potential eval.      ....       3.713 sec  ( 27.4% of XC)
Diagonalization             ....       0.000 sec  (  0.0%)
Density matrix formation    ....       0.072 sec  (  0.1%)
Total Energy calculation    ....       0.030 sec  (  0.0%)
Population analysis         ....       0.426 sec  (  0.4%)
Orbital Transformation      ....       0.058 sec  (  0.1%)
Orbital Orthonormalization  ....       0.000 sec  (  0.0%)
DIIS solution               ....       0.263 sec  (  0.2%)
  MO trafo                  ....       0.000 sec  (  0.0 % of DIIS)
  Orb grad                  ....       0.000 sec  (  0.0 % of DIIS)
  Energy W gradient         ....       0.000 sec  (  0.0 % of DIIS)
  DIIS error                ....       0.057 sec  ( 21.7 % of DIIS)
  DIIS work                 ....       0.169 sec  ( 64.2 % of DIIS)
  Form Q                    ....       0.000 sec  (  0.0 % of DIIS)
  Form QpQm                 ....       0.000 sec  (  0.0 % of DIIS)
  Exp/Cayley                ....       0.000 sec  (  0.0 % of DIIS)
  Orb update                ....       0.000 sec  (  0.0 % of DIIS)
  Wake-sleep                ....       0.007 sec  (  2.8 % of DIIS)
SOSCF solution              ....       0.241 sec  (  0.2%)
  MO trafo                  ....       0.087 sec  ( 36.2 % of SOSCF)
  Orb grad                  ....       0.007 sec  (  2.9 % of SOSCF)
  Rot update                ....       0.027 sec  ( 11.0 % of SOSCF)
  Step                      ....       0.110 sec  ( 45.9 % of SOSCF)
Finished LeanSCF after 108.5 sec

Maximum memory used throughout the entire LEANSCF-calculation: 34.4 MB


-------------------------------------------------------------------------------
                          DFT DISPERSION CORRECTION                            
                                                                               
                              DFTD3 V3.1  Rev 1                                
                          USING Becke-Johnson damping                          
-------------------------------------------------------------------------------
The B3LYP functional is recognized
Active option DFTDOPT                   ...         4   

molecular C6(AA) [au] = 8011.380721 


            DFT-D V3
 parameters
 s6 scaling factor         :     1.0000 
 a1 scaling factor         :     0.3981 
 s8 scaling factor         :     1.9889 
 a2 scaling factor         :     4.4211 
 ad hoc parameters k1-k3   :    16.0000     1.3333    -4.0000 

 Edisp/kcal,au: -34.889649881060  -0.055600190278 
 E6   /kcal   : -16.467242530 
 E8   /kcal   : -18.422407351 
 % E8         :  52.801926685 

-------------------------   ----------------
Dispersion correction           -0.055600190
-------------------------   ----------------


-------------------------   --------------------
FINAL SINGLE POINT ENERGY      -785.219804547172
-------------------------   --------------------



           ************************************************************
           *        Program running with 2 parallel MPI-processes     *
           *              working on a common directory               *
           ************************************************************
------------------------------------------------------------------------------
                            ORCA SCF RESPONSE CALCULATION
------------------------------------------------------------------------------

GBWName                                 ... /kaggle/working/Trp-F-2/Trp-F_InterFrag.gbw
Number of atoms                         ...     27
Number of basis functions               ...    279
Max core memory                         ...   3000 MB

Electric field perturbation             ... YES
Quadrupolar field perturbation          ...  NO
Magnetic field perturbation (no GIAO)   ...  NO
Magnetic field perturbation (with GIAO) ...  NO
Linear momentum (velocity) perturbation ...  NO
Spin-orbit coupling perturbation        ...  NO
Choice of electric origin               ... Center of mass
Position of electric origin             ...     0.100449     0.162123    -0.027139
Choice of magnetic origin               ... GIAO
Position of magnetic origin             ...     0.000000     0.000000     0.000000
Nuclear geometric perturbations         ...  NO (  81 perturbations)
Nucleus-orbit perturbations             ...  NO (   0 perturbations)
Spin-dipole/Fermi contact perturbations ...  NO (   0 perturbations)

Total number of real perturbations      ...      3
Total number of imaginary perturbations ...      0
Total number of triplet perturbations   ...      0
Total number of SOC perturbations       ...      0

Using XC Grid                  ... (/kaggle/working/Trp-F-2/Trp-F_InterFrag.grid_cpscf.tmp) 
Recalculating density on grid  ... (/kaggle/working/Trp-F-2/Trp-F_InterFrag.grho_cpscf0.tmp) done
Calculating the xc-kernel      ... (/kaggle/working/Trp-F-2/Trp-F_InterFrag.fxc_cpscf0.tmp) done

                                **********************
                                * REAL PERTURBATIONS *
                                **********************



-------------------
SHARK CP-SCF DRIVER
-------------------

Dimension of the orbital basis          ...    279
Dimension of the CPSCF-problem          ...  12818
Number of operators                     ...      1
Max. number of iterations               ...    128
Convergence Tolerance                   ... 1.0e-04
Number of perturbations                 ...      3
Perturbation type                       ... REAL

----------------------------
POPLE LINEAR EQUATION SOLVER
----------------------------

  ITERATION   0:   ||err||_max =   2.8609e+01 (   4.4 sec   0/  3 done)
  ITERATION   1:   ||err||_max =   1.3072e+00 (   4.1 sec   0/  3 done)
  ITERATION   2:   ||err||_max =   5.1301e-01 (   4.2 sec   0/  3 done)
  ITERATION   3:   ||err||_max =   1.4436e-01 (   4.1 sec   0/  3 done)
  ITERATION   4:   ||err||_max =   5.6511e-02 (   4.1 sec   0/  3 done)
  ITERATION   5:   ||err||_max =   1.8119e-02 (   4.1 sec   0/  3 done)
  ITERATION   6:   ||err||_max =   7.6973e-03 (   4.2 sec   0/  3 done)
  ITERATION   7:   ||err||_max =   2.5985e-03 (   4.1 sec   0/  3 done)
  ITERATION   8:   ||err||_max =   9.3991e-04 (   4.1 sec   0/  3 done)
  ITERATION   9:   ||err||_max =   2.8296e-04 (   4.2 sec   0/  3 done)
  ITERATION  10:   ||err||_max =   1.0999e-04 (   4.1 sec   2/  3 done)
  ITERATION  11:   ||err||_max =   3.1387e-05 (   3.2 sec   3/  3 done)

CP-SCF equations solved in  49.0 sec
Response densities calculated in   0.0 sec

Maximum memory used throughout the entire SCFRESP-calculation: 39.4 MB


           ************************************************************
           *        Program running with 2 parallel MPI-processes     *
           *              working on a common directory               *
           ************************************************************

------------------------------------------------------------------------------
                              ORCA PROPERTY CALCULATIONS
------------------------------------------------------------------------------

GBWName                                 ... /kaggle/working/Trp-F-2/Trp-F_InterFrag.gbw
Number of atoms                         ...     27
Number of basis functions               ...    279
Max core memory                         ...   3000 MB

Electric properties:
Dipole moment                           ... YES
Quadrupole moment                       ...  NO
Static polarizability (Dipole/Dipole)   ... YES
Static polarizability (Dipole/Quad.)    ...  NO
Static polarizability (Quad./Quad.)     ...  NO
Static polarizability (Velocity)        ...  NO
Static hyperpolarizability              ...  NO

Atomic electric properties:
Dipole moment                           ...  NO
Quadrupole moment                       ...  NO
Static polarizability                   ...  NO

Choice of electric origin               ... Center of mass
Position of electric origin             ...     0.100449     0.162123    -0.027139

General magnetic properties:
Magnetizability                         ...  NO

EPR properties:
g-Tensor (aka g-matrix)                 ...  NO
Zero-Field splitting spin-orbit         ...  NO
Zero-field splitting spin-spin          ...  NO
Hyperfine couplings                     ...  NO (   0 nuclei)
Quadrupole couplings                    ...  NO (   0 nuclei)
Contact density                         ...  NO (   0 nuclei)

NMR properties:
Chemical shifts                         ...  NO (   0 nuclei)
Spin-rotation constants                 ...  NO (   0 nuclei)
Spin-spin couplings                     ...  NO (   0 nuclei,    0 pairs)

Choice of magnetic origin               ... GIAO
Position of magnetic origin             ...     0.000000     0.000000     0.000000

Properties with geometric perturbations:
SCF Hessian                             ...  NO
IR spectrum                             ...  NO
VCD spectrum                            ...  NO
X-ray spectroscopy properties:
SCF XES/XAS/RIXS spectra                ...  NO

SCF SOC stabilization energy            ...  NO
Diagonal Born-Oppenheimer correction    ...  NO

-------------
DIPOLE MOMENT
-------------

Method             : SCF
Type of density    : Electron Density
Multiplicity       :   1
Irrep              :   0
Energy             :  -785.1642043568938334 Eh
Basis              : AO
                                X                 Y                 Z
Electronic contribution:     -9.568160609       7.584456384      -0.905041587
Nuclear contribution   :      9.609722078      -9.829620569      -0.031313381
                        -----------------------------------------
Total Dipole Moment    :      0.041561468      -2.245164185      -0.936354968
                        -----------------------------------------
Magnitude (a.u.)       :      2.432950924
Magnitude (Debye)      :      6.184069793



--------------------
Rotational spectrum 
--------------------
 
Rotational constants in cm-1:             0.026642             0.013650             0.010189 
Rotational constants in MHz :           798.716024           409.227660           305.466343 

Dipole components along the rotational axes: 
x,y,z [a.u.] :    -0.088346    -2.236448    -0.953805 
x,y,z [Debye]:    -0.224558    -5.684600    -2.424380 

 

Dipole moment calculation done in   0.0 sec 


---------------------------------------------------
STATIC POLARIZABILITY TENSOR (Dipole/Dipole)
---------------------------------------------------

Method             : SCF
Type of density    : Electron Density
Type of derivative : Electric Field (Direction=X)
Multiplicity       :   1
Irrep              :   0
Basis              : AO

The raw cartesian tensor (atomic units):
     159.262876850       -13.878238218        22.840270596  
     -13.878238218       145.542192516         8.368709909  
      22.840270596         8.368709909        77.735233618  
diagonalized tensor: 
      69.959117869       141.958443406       170.622741709  

Orientation: 
      -0.267264764         0.381387964        -0.884936589  
      -0.154389976         0.889531725         0.429996565  
       0.951174685         0.251548269        -0.178858008  

Isotropic polarizability : 127.51343


Polarizability tensor calculation done in   0.0 sec 

Maximum memory used throughout the entire PROP-calculation: 18.0 MB

--------------------------------
SUGGESTED CITATIONS FOR THIS RUN
--------------------------------

Below you find a list of papers that are relevant to this ORCA run
We neither can nor want to force you to cite these papers, but we appreciate if you do
You receive ORCA, which is the product of decades of hard work by many enthusiastic individuals, for free
The only thing we kindly ask in return is that you cite our papers,
We deeply appreciate it, if you show your appreciation for ORCA by not just citing the generic ORCA reference.

Please note that relegating all ORCA citations to the supporting information does *not* help us.
SI sections are not indexed - citations you put there will not count into any citation statistics
But we need these citations in order to attract the funding resources that allow us to do what we are doing

Therefore, if you are a happy ORCA user, please consider citing a few of the papers listed below in the main body of your paper

In addition to the list printed below, the program has created the file /kaggle/working/Trp-F-2/Trp-F_InterFrag.bibtex that contains the list in bibtex format
You can import this file easily into all common literature databanks and citation aid programs

It goes without saying that in many instances, there are alternative algorithms to achieve similar
results as the ones you have gotten from ORCA. It is, of course, also the case that in some instances
ORCA just re-implements algorithms worked out by others. We are fully aware of that and we are also
fully appreciative of our colleagues work. Hence this citation list should not be read as indicating
that the listed papers, which are focused on our own work, are the only ones worth citing. It simply
meant to make it easier for users to cite ORCA specific papers. It is not a substitute for doing your
own literature research and citing the relevant literature in a scientifically appropriate manner.

List of essential papers. We consider these as the minimum necessary citations

  1. Neese, F.
     Software update: the ORCA program system, version 6.0
     WIRES Comput. Molec. Sci. 2025 15(1), e70019
     doi.org/10.1002/wcms.70019

List of papers to cite with high priority. The work reported in these papers was absolutely
necessary for this run to complete.
Our perspective: the developers of density functionals and basis sets usually get cited in chemistry papers
Good! But without the algorithms to do something with them, the functionals or basis sets would not do anything.
Hence, in our opinion, the algorithm design and method developments papers are equally worthy of getting cited

  1. Neese, F.
     An improvement of the resolution of the identity approximation for the formation of the Coulomb matrix
     J. Comp. Chem. 2003 24(14), 1740-1747
     doi.org/10.1002/jcc.10318
  2. Neese, F.; Wennmohs, F.; Hansen, A.; Becker, U.
     Efficient, approximate and parallel Hartree-Fock and hybrid DFT calculations. A 'chain-of-spheres' algorithm for the Hartree-Fock exchange
     Chem. Phys. 2009 356(1-3), 98-109
     doi.org/10.1016/j.chemphys.2008.10.036
  3. Grimme, S.; Antony, J.; Ehrlich, S.; Krieg, H.
     A consistent and accurate ab initio parametrization of density functional dispersion correction (DFT-D) for the 94 elements H-Pu
     J. Chem. Phys. 2010 132 , 154104
     doi.org/10.1063/1.3382344
  4. Grimme, S.; Ehrlich, S.; Goerigk, L.
     Effect of the damping function in dispersion corrected density functional theory
     J. Comput. Chem. 2011 32(7), 1456-1465
     doi.org/10.1002/jcc.21759
  5. Helmich-Paris, B.; de Souza, B.; Neese, F.; Izsák, R.
     An improved chain of spheres for exchange algorithm
     J. Chem. Phys. 2021 155(10), 104109
     doi.org/10.1063/5.0058766
  6. Neese, F.
     The SHARK Integral Generation and Digestion System
     J. Comp. Chem. 2022 44(3), 381
     doi.org/10.1002/jcc.26942

List of suggested additional citations. These are papers that are important in the 'surrounding' of 
of this run, or papers that preceded the highly important papers. If you like your results we are grateful for a citation.

  1. Izsak, R.; Neese, F.
     An overlap fitted chain of spheres exchange method
     J. Chem. Phys. 2011 135 , 144105
     doi.org/10.1063/1.3646921
  2. Izsak, R.; Hansen, A.; Neese, F.
     The resolution of identity and chain of spheres approximations for the LPNO-CCSD singles Fock term
     Molec. Phys. 2012 110 , 2413-2417
     doi.org/10.1080/00268976.2012.687466
  3. Neese, F.
     The ORCA program system
     WIRES Comput. Molec. Sci. 2012 2(1), 73-78
     doi.org/10.1002/wcms.81
  4. Izsak, R.; Neese, F.; Klopper, W.
     Robust fitting techniques in the chain of spheres approximation to the Fock exchange: The role of the complementary space
     J. Chem. Phys. 2013 139 , 
     doi.org/10.1063/1.4819264
  5. Neese, F.
     Software update: the ORCA program system, version 4.0
     WIRES Comput. Molec. Sci. 2018 8(1), 1-6
     doi.org/10.1002/wcms.1327
  6. Neese, F.; Wennmohs, F.; Becker, U.; Riplinger, C.
     The ORCA quantum chemistry program package
     J. Chem. Phys. 2020 152(22), 224108
     doi.org/10.1063/5.0004608
  7. Neese, F.
     Software update: The ORCA program system—Version 5.0
     WIRES Comput. Molec. Sci. 2022 12(1), e1606
     doi.org/10.1002/wcms.1606

List of optional additional citations

  1. Neese, F.
     Approximate second-order SCF convergence for spin unrestricted wavefunctions
     Chem. Phys. Lett. 2000 325(1-3), 93-98
     doi.org/10.1016/s0009-2614(00)00662-x

Timings for individual modules:

Sum of individual times          ...      164.870 sec (=   2.748 min)
Startup calculation              ...        4.255 sec (=   0.071 min)   2.6 %
SCF iterations                   ...      110.257 sec (=   1.838 min)  66.9 %
SCF Response                     ...       49.881 sec (=   0.831 min)  30.3 %
Property calculations            ...        0.477 sec (=   0.008 min)   0.3 %
                             ****ORCA TERMINATED NORMALLY****
TOTAL RUN TIME: 0 days 0 hours 2 minutes 45 seconds 405 msec
