
                                 *****************
                                 * O   R   C   A *
                                 *****************

                                            #,                                       
                                            ###                                      
                                            ####                                     
                                            #####                                    
                                            ######                                   
                                           ########,                                 
                                     ,,################,,,,,                         
                               ,,#################################,,                 
                          ,,##########################################,,             
                       ,#########################################, ''#####,          
                    ,#############################################,,   '####,        
                  ,##################################################,,,,####,       
                ,###########''''           ''''###############################       
              ,#####''   ,,,,##########,,,,          '''####'''          '####       
            ,##' ,,,,###########################,,,                        '##       
           ' ,,###''''                  '''############,,,                           
         ,,##''                                '''############,,,,        ,,,,,,###''
      ,#''                                            '''#######################'''  
     '                                                          ''''####''''         
             ,#######,   #######,   ,#######,      ##                                
            ,#'     '#,  ##    ##  ,#'     '#,    #''#        ,####,    ,#,          
            ##       ##  ##   ,#'  ##            #'  '#       #'       ,# #          
            ##       ##  #######   ##           ,######,      #####,      #          
            '#,     ,#'  ##    ##  '#,     ,#' ,#      #,     #,   #      #          
             '#######'   ##     ##  '#######'  #'      '#     '####' #    #          



                #########################################################
                #                        -***-                          #
                #          Department of theory and spectroscopy        #
                #                                                       #
                #                      Frank Neese                      #
                #                                                       #
                #     Directorship, Architecture, Infrastructure        #
                #                    SHARK, DRIVERS                     #
                #        Core code/Algorithms in most modules           #
                #                                                       #
                #        Max Planck Institute fuer Kohlenforschung      #
                #                Kaiser Wilhelm Platz 1                 #
                #                 D-45470 Muelheim/Ruhr                 #
                #                      Germany                          #
                #                                                       #
                #                  All rights reserved                  #
                #                        -***-                          #
                #########################################################


                         Program Version 6.1.1  -  RELEASE   -
                                (GIT: $487d211c$)
                          ($2025-11-21 10:33:24 +0100$)
                                                                         
                                  - NO-DMRG VERSION -                    
                                                                         


 With contributions from (in alphabetic order):
[Max-Planck-Institut fuer Kohlenforschung]                               
  Daniel Aravena         : Magnetic Suceptibility                        
  Michael Atanasov       : Ab Initio Ligand Field Theory (pilot matlab implementation)
  Alexander A. Auer      : GIAO ZORA, VPT2 properties, NMR spectrum      
  Ute Becker             : All parallelization in ORCA, NUMFREQ, NUMCALC 
  Giovanni Bistoni       : ED, misc. LED, open-shell LED, HFLD           
  Dmytro Bykov           : pre 5.0 version of the SCF Hessian            
  Marcos Casanova-Páez   : Triplet and SCS-CIS(D). UHF-(DLPNO)-IP/EA/STEOM-CCSD. UHF-CVS-IP/STEOM-CCSD   
  Vijay G. Chilkuri      : MRCI spin determinant printing, contributions to CSF-ICE 
  Pauline Colinet        : FMM embedding                                 
  Dipayan Datta          : RHF DLPNO-CCSD density                        
  Achintya Kumar Dutta   : EOM-CC, STEOM-CC                              
  Nicolas Foglia         : Exact transition moments, OPA infrastructure, MCD improvements    
  Dmitry Ganyushin       : Spin-Orbit,Spin-Spin,Magnetic field MRCI      
  Miquel Garcia-Rates    : C-PCM and meta-GGA Hessian, CCSD/C-PCM, Gaussian charge scheme 
  Tiago L. C. Gouveia    : GS-ROHF, GS-ROCIS                             
  Yang Guo               : DLPNO-NEVPT2, F12-NEVPT2, CIM, IAO-localization        
  Andreas Hansen         : Spin unrestricted coupled pair/coupled cluster methods 
  Ingolf Harden          : AUTO-CI MPn and infrastructure                
  Benjamin Helmich-Paris : MC-RPA, TRAH-(SCF,CASSCF), AVAS, COSX integrals, SCF dyn. polar., MC-PDFT, srDFT 
  Lee Huntington         : MR-EOM, pCC                                   
  Robert Izsak           : Overlap fitted RIJCOSX, COSX-SCS-MP3, EOM     
  Riya Kayal             : Wick's Theorem for AUTO-CI, AUTO-CI UHF-CCSDT 
  Emily Kempfer          : AUTO-CI RHF CISDT and CCSDT, approximate NEVPT4
  Christian Kollmar      : KDIIS, OOCD, Brueckner-CCSD(T), CCSD density, CASPT2, CASPT2-K, improved NEVPT2 
  Axel Koslowski         : Symmetry handling                             
  Simone Kossmann        : meta-GGA functionals, TD-DFT gradient, OOMP2, (MP2 Hessian; deprecated post 5.0) 
  Lucas Lang             : DCDCAS, Hyperfine gauge corrections, ICE-SOC+SSC
  Marvin Lechner         : AUTO-CI (C++ implementation), FIC-MRCC        
  Spencer Leger          : CASSCF response                               
  Dagmar Lenk            : GEPOL surface, SMD, ORCA-2-JSON               
  Dimitrios Liakos       : Extrapolation schemes; Compound Job, Property file
  Dimitrios Manganas     : Further ROCIS development; embedding schemes. LFT, Crystal Embedding 
  Dimitrios Pantazis     : SARC Basis sets                               
  Anastasios Papadopoulos: AUTO-CI, single reference methods and gradients 
  Taras Petrenko         : pre 6.0 DFT Hessian and TD-DFT gradient,  ECA, NRVS 
  Petra Pikulova         : Analytic Raman intensities                    
  Peter Pinski           : DLPNO-MP2, DLPNO-MP2 Gradient                 
  Shashank Vittal Rao    : ES-AILFT, MagRelax                            
  Christoph Reimann      : Effective Core Potentials                     
  Marius Retegan         : Local ZFS, SOC                                
  Christoph Riplinger    : Optimizer, TS searches, QM/MM, DLPNO-CCSD(T), (RO)-DLPNO pert. Triples 
  Michael Roemelt        : Original ROCIS implementation, recursive CI coupling coefficients
  Masaaki Saitow         : Open-shell DLPNO-CCSD energy and density      
  Barbara Sandhoefer     : DKH picture change effects                    
  Yorick L. A. Schmerwitz: GMF and freeze-and-release deltaSCF, NEB S-IDPP initial path                    
  Kantharuban Sivalingam : CASSCF convergence/infrastructure, NEVPT2, NEVPT3, NEVPT4(SD), FIC-MRCI and CEPA variants
  Bernardo de Souza      : ESD, SOC TD-DFT                               
  Georgi L. Stoychev     : AutoAux, RI-MP2 NMR, DLPNO-MP2 response, X2C  
  Van Anh Tran           : RI-MP2 g-tensors                              
  Willem Van den Heuvel  : Paramagnetic NMR                              
  Zikuan Wang            : NOTCH, Electric field optimization            
  Frank Wennmohs         : Technical directorship and infrastructure     
  Hang Xu                : AUTO-CI-Response properties                   
                                                                         
[FACCTs GmbH]                                                            
  Markus Bursch, Nicolas Foglia, Miquel Garcia-Rates, Ingolf Harden, Hagen Neugebauer, Anastasios Papadopoulos, 
  Christoph Riplinger, Bernardo de Souza, Georgi L. Stoychev                                                    
                                                                 
  APM, various basis sets, CI-OPT, improved COSX, DLPNO-Multilevel,           
  DOCKER, DRACO, updates on ESD, Fragmentator, GOAT, IRC, LR-CPCM, L-BFGS, MBIS, meta-GGA TD-DFT gradient, ML-optimized integration grids, 
  MM, NACMEs, nearIR, NEB, NEB-TS, NL-DFT gradient (VV10), 2- and 3-layer-ONIOM, interface openCOSMO-RS, QMMM,   
  Crystal-QMMM, RESP, rigid body optimization, SF, symmetry and pop. for TD-DFT, various functionals, SOLVATOR                                   
                                                                         
[Other institutions]                                                     
  V. Asgeirsson          : NEB                                           
  Christoph Bannwarth    : sTDA-DFT, sTD-DFT, PBEh-3c, B97-3c, D3        
  Giovanni Bistoni       : ETS/NOCV, ADLD/ADEX, COVALED                  
  Martin Brehm           : Molecular dynamics                            
  Ronald Cardenas        : ETS/NOCV                                      
  Martina Colucci        : COVALED                                       
  Sebastian Ehlert       : rSCAN, r2SCAN, r2SCAN-3c, D4, dhf basis sets  
  Marvin Friede          : D4 for Fr, Ra, Ac-Lr                          
  Lars Goerigk           : TD-DFT with DH, B97 family of functionals     
  Stefan Grimme          : VdW corrections, initial TS optimization, DFT functionals, gCP, sTDA/sTD-DF 
  Waldemar Hujo          : DFT-NL                                        
  H. Jonsson             : NEB                                           
  Holger Kruse           : gCP                                           
  Marcel Mueller         : wB97X-3c, vDZP basis set                      
  Hagen Neugebauer       : wr2SCAN, Native XTB                           
  Gianluca Regni         : ADLD/ADEX                                     
  Tobias Risthaus        : pre 6.0 range-separated hybrid DFT and stability analysis
  Lukas Wittmann         : regularized MP2, r2SCAN double-hybrids, wr2SCAN        
                                                                         
We gratefully acknowledge several colleagues who have allowed us to      
interface, adapt or use parts of their codes:                            
  Ed Valeev, F. Pavosevic, A. Kumar             : LibInt (2-el integral package), F12 methods 
  Garnet Chan, S. Sharma, J. Yang, R. Olivares  : DMRG                   
  Ulf Ekstrom                                   : XCFun DFT Library      
  Mihaly Kallay                                 : mrcc  (arbitrary order and MRCC methods)
  Frank Weinhold                                : gennbo (NPA and NBO analysis)           
  Simon Mueller                                 : openCOSMO-RS                            
  Christopher J. Cramer and Donald G. Truhlar   : smd solvation model                     
  S Lehtola, MJT Oliveira, MAL Marques          : LibXC Library                           
  Liviu Ungur et al                             : ANISO software                          


 Your calculation uses the libint2 library for the computation of 2-el integrals
 For citations please refer to: http://libint.valeyev.net

 Your ORCA version has been built with support for libXC version: 7.0.0
 For citations please refer to: https://libxc.gitlab.io

 This ORCA versions uses:
   CBLAS   interface :  Fast vector & matrix operations
   LAPACKE interface :  Fast linear algebra routines
   SCALAPACK package :  Parallel linear algebra routines
   Shared memory     :  Shared parallel matrices
   BLAS/LAPACK       :  OpenBLAS 0.3.29  USE64BITINT DYNAMIC_ARCH NO_AFFINITY Haswell SINGLE_THREADED
        Core in use  :  Haswell
   Copyright (c) 2011-2014, The OpenBLAS Project


  ***********************************
  * Starting time: Sat Mar 28 19:51:28 2026
  * Host name:     1c8db70ee31d
  * Process ID:    46
  * Working dir.:  /kaggle/working
  ***********************************

NOTE: MaxCore=3000 MB was set to SCF,MP2,MDCI,CIPSI,MRCI,RASCI and CIS
      => If you want to overwrite this, your respective input block should be placed after the MaxCore statement
Your calculation utilizes the atom-pairwise dispersion correction
with the Becke-Johnson damping scheme (D3BJ)


Your calculation utilizes the SMD solvation module
Please cite in your paper:
Marenich, A. V.; Cramer, C. J.; Truhlar, D. G. J. Phys. Chem. B 2009, 113, 6378 

Warning: RI is on but no J-basis has been assigned. Assigning Def2/J (nothing to worry about!)
================================================================================

----- Orbital basis set information -----
Your calculation utilizes the basis: 6-31G(d,p)
   H-He, Li-Ne : W. J. Hehre, R. Ditchfield and J.A. Pople, J. Chem. Phys. 56, 2257 (1972).
                 Note: He and Ne are unpublished basis sets taken from the Gaussian program.
                 Note: Li and B from J. D. Dill and J. A. Pople, J. Chem. Phys. 62, 2921 (1975).
   Na - Ar     : M. M. Francl, W. J. Pietro, W. J. Hehre, J. S. Binkley, M. S. Gordon, 
                 D. J. DeFrees and J. A. Pople, J. Chem. Phys. 77, 3654 (1982).
   K - Zn      : V. A. Rassolov, J. A. Pople, M. A. Ratner, and T. L. Windus, J. Chem. Phys. 109, 1223 (1998).

----- AuxJ basis set information -----
Your calculation utilizes the auxiliary basis: def2/J
   H-Rn: F. Weigend, Phys. Chem. Chem. Phys. 8, 1057 (2006).
   Fr-Lr: K. Eichkorn, F. Weigend, O. Treutler, R. Ahlrichs; Theor. Chem. Acc. 97, 119 (1997).

================================================================================
                                        WARNINGS
                       Please study these warnings very carefully!
================================================================================


WARNING: Geometry Optimization
  ===> : Switching off AutoStart
         For restart on a previous wavefunction, please use MOREAD

================================================================================
                                       INPUT FILE
================================================================================
NAME = /kaggle/working/Trp-F-1/Trp-F_InterFrag.inp
|  1> 
|  2> !RKS B3LYP 6-31G(d,p) TightSCF Opt D3BJ
|  3>  
|  4> %pal nprocs 2 end
|  5> %maxcore 3000
|  6> 
|  7> %cpcm
|  8>   smd true
|  9>   SMDsolvent "WATER"
| 10>   end
| 11> 
| 12> %scf
| 13>   MaxIter 1000
| 14>   SOSCF Start 0.00033
| 15>   end
| 16> end
| 17> 
| 18> %output
| 19>   PrintLevel Normal
| 20>   Print[ P_OrbEn ] 2        # print ALL orbital energies (not just up to LUMO+9) :contentReference[oaicite:10]{index=10}
| 21>   XYZFile true              # writes basename.xyz (handy for reuse) :contentReference[oaicite:11]{index=11}
| 22>   end
| 23> 
| 24> *xyz 0 1
| 25> F       -2.542400000      2.711500000      0.578500000
| 26> O        1.591100000      0.710400000     -1.824800000
| 27> O        2.368400000      2.129000000     -0.236100000
| 28> N       -1.129900000     -2.471800000     -0.393200000
| 29> N        4.036200000      0.115500000      0.654200000
| 30> C        0.476500000     -1.226800000      0.499300000
| 31> C        1.777100000     -0.805600000      1.058500000
| 32> C       -0.678800000     -0.412200000      0.335700000
| 33> C        2.775800000     -0.263400000      0.009900000
| 34> C       -1.671900000     -1.217500000     -0.226100000
| 35> C        0.168100000     -2.487400000      0.042200000
| 36> C       -0.975800000      0.937100000      0.612700000
| 37> C       -2.952300000     -0.738900000     -0.525900000
| 38> C       -2.252300000      1.429500000      0.318000000
| 39> C        2.234100000      0.988100000     -0.660400000
| 40> C       -3.223900000      0.602600000     -0.242500000
| 41> H        2.234700000     -1.658600000      1.578600000
| 42> H        1.606500000     -0.044200000      1.832100000
| 43> H        2.987000000     -1.018700000     -0.756100000
| 44> H        0.754200000     -3.394100000     -0.013600000
| 45> H       -1.619900000     -3.265900000     -0.781500000
| 46> H       -0.234500000      1.596200000      1.054600000
| 47> H       -3.709300000     -1.381800000     -0.962300000
| 48> H        4.714100000      0.388800000     -0.056600000
| 49> H        4.433400000     -0.695300000      1.127300000
| 50> H       -4.208700000      1.006200000     -0.463200000
| 51> H        1.249800000      1.522500000     -2.256300000
| 52> *
| 53> 
| 54>                          ****END OF INPUT****
================================================================================

                       *****************************
                       * Geometry Optimization Run *
                       *****************************

Geometry optimization settings:
Update method            Update   .... BFGS
Choice of coordinates    CoordSys .... (2022) Redundant Internals
Initial Hessian          InHess   .... Almloef's Model
Max. no of cycles        MaxIter  .... 81

Convergence Tolerances:
Energy Change            TolE     ....  5.0000e-06 Eh
Max. Gradient            TolMAXG  ....  3.0000e-04 Eh/bohr
RMS Gradient             TolRMSG  ....  1.0000e-04 Eh/bohr
Max. Displacement        TolMAXD  ....  4.0000e-03 bohr
RMS Displacement         TolRMSD  ....  2.0000e-03 bohr
Strict Convergence                .... False

------------------------------------------------------------------------------
                        ORCA OPTIMIZATION COORDINATE SETUP
------------------------------------------------------------------------------

The optimization will be done in redundant internal coordinates (2022)
Making redundant internal coordinates   ...  (2022 redundants) done
Evaluating the initial hessian          ...  (Almloef) done
Evaluating the coordinates              ...  done
Calculating the B-matrix                .... done
Calculating the G-matrix                .... done
The number of degrees of freedom        ....  137

    -----------------------------------------------------------------
                    Redundant Internal Coordinates


    -----------------------------------------------------------------
         Definition                    Initial Value    Approx d2E/dq
    -----------------------------------------------------------------
      1. B(C   6,C   5)                  1.4770         0.453792   
      2. B(C   7,C   5)                  1.4230         0.553373   
      3. B(C   8,C   6)                  1.5463         0.351903   
      4. B(C   8,N   4)                  1.4654         0.424263   
      5. B(C   9,C   7)                  1.3966         0.609923   
      6. B(C   9,N   3)                  1.3766         0.587890   
      7. B(C  10,N   3)                  1.3692         0.604104   
      8. B(C  10,C   5)                  1.3759         0.657958   
      9. B(C  11,C   7)                  1.4091         0.582470   
     10. B(C  12,C   9)                  1.3994         0.603556   
     11. B(C  13,C  11)                  1.3996         0.603243   
     12. B(C  13,F   0)                  1.3400         0.624846   
     13. B(C  14,C   8)                  1.5195         0.388213   
     14. B(C  14,O   2)                  1.2246         1.027335   
     15. B(C  14,O   1)                  1.3588         0.627509   
     16. B(C  15,C  13)                  1.3935         0.616743   
     17. B(C  15,C  12)                  1.3977         0.607259   
     18. B(H  16,C   6)                  1.0989         0.348558   
     19. B(H  17,C   6)                  1.0988         0.348686   
     20. B(H  18,C   8)                  1.0963         0.351882   
     21. B(H  19,C  10)                  1.0811         0.372097   
     22. B(H  20,N   3)                  1.0107         0.431630   
     23. B(H  21,C  11)                  1.0859         0.365543   
     24. B(H  22,C  12)                  1.0848         0.367031   
     25. B(H  23,N   4)                  1.0195         0.417794   
     26. B(H  24,N   4)                  1.0193         0.418163   
     27. B(H  25,C  15)                  1.0869         0.364175   
     28. B(H  26,O   1)                  0.9809         0.481511   
     29. A(C  14,O   1,H  26)          111.8641         0.366025   
     30. A(C   9,N   3,H  20)          124.8665         0.355292   
     31. A(C  10,N   3,H  20)          124.9489         0.356937   
     32. A(C   9,N   3,C  10)          110.1846         0.422384   
     33. A(C   8,N   4,H  24)          109.4855         0.334572   
     34. A(C   8,N   4,H  23)          109.5529         0.334523   
     35. A(H  23,N   4,H  24)          106.1238         0.299924   
     36. A(C   6,C   5,C  10)          125.7606         0.414887   
     37. A(C   7,C   5,C  10)          107.7157         0.429854   
     38. A(C   6,C   5,C   7)          126.5236         0.402365   
     39. A(C   8,C   6,H  16)          108.9173         0.319452   
     40. A(C   8,C   6,H  17)          109.5576         0.319471   
     41. A(C   5,C   6,H  17)          109.1136         0.333124   
     42. A(C   5,C   6,C   8)          114.3287         0.371848   
     43. A(H  16,C   6,H  17)          105.6245         0.287901   
     44. A(C   5,C   6,H  16)          108.9361         0.333104   
     45. A(C   9,C   7,C  11)          118.7742         0.427964   
     46. A(C   5,C   7,C  11)          134.1597         0.420581   
     47. A(C   5,C   7,C   9)          107.0661         0.424055   
     48. A(C   6,C   8,H  18)          110.8966         0.319947   
     49. A(N   4,C   8,H  18)          108.6424         0.327949   
     50. A(N   4,C   8,C   6)          110.3670         0.365281   
     51. A(C   6,C   8,C  14)          110.9587         0.362030   
     52. A(N   4,C   8,C  14)          106.7156         0.371491   
     53. A(C  14,C   8,H  18)          109.1408         0.325138   
     54. A(C   7,C   9,C  12)          122.6565         0.430703   
     55. A(N   3,C   9,C  12)          130.2304         0.425081   
     56. A(N   3,C   9,C   7)          107.1132         0.425880   
     57. A(N   3,C  10,C   5)          107.9204         0.433827   
     58. A(C   5,C  10,H  19)          131.6083         0.358474   
     59. A(N   3,C  10,H  19)          120.4712         0.351140   
     60. A(C   7,C  11,C  13)          119.1924         0.427120   
     61. A(C  13,C  11,H  21)          119.6548         0.352169   
     62. A(C   7,C  11,H  21)          121.1519         0.350090   
     63. A(C   9,C  12,C  15)          117.5542         0.430365   
     64. A(C  15,C  12,H  22)          120.9813         0.352807   
     65. A(C   9,C  12,H  22)          121.4645         0.352442   
     66. A(F   0,C  13,C  11)          119.5464         0.427808   
     67. A(C  11,C  13,C  15)          120.7867         0.431524   
     68. A(F   0,C  13,C  15)          119.6669         0.429510   
     69. A(O   2,C  14,C   8)          125.1251         0.434092   
     70. A(O   1,C  14,C   8)          112.2333         0.397658   
     71. A(O   1,C  14,O   2)          122.6284         0.470548   
     72. A(C  12,C  15,C  13)          121.0360         0.432039   
     73. A(C  13,C  15,H  25)          119.5405         0.353267   
     74. A(C  12,C  15,H  25)          119.4234         0.352341   
     75. D(H  16,C   6,C   5,C   7)    147.8710         0.015184   
     76. D(H  16,C   6,C   5,C  10)    -32.0927         0.015184   
     77. D(H  17,C   6,C   5,C   7)     33.0207         0.015184   
     78. D(C   8,C   6,C   5,C  10)     89.9986         0.015184   
     79. D(C   8,C   6,C   5,C   7)    -90.0377         0.015184   
     80. D(C  11,C   7,C   5,C   6)      0.0196         0.020957   
     81. D(C  11,C   7,C   5,C  10)    179.9887         0.020957   
     82. D(C   9,C   7,C   5,C  10)     -0.0021         0.020957   
     83. D(C   9,C   7,C   5,C   6)   -179.9712         0.020957   
     84. D(N   4,C   8,C   6,C   5)   -179.4558         0.010000   
     85. D(H  18,C   8,N   4,H  23)     52.9865         0.015347   
     86. D(C  14,C   8,N   4,H  23)    -64.5703         0.015347   
     87. D(C   6,C   8,N   4,H  24)     58.7803         0.015347   
     88. D(C   6,C   8,N   4,H  23)    174.7745         0.015347   
     89. D(C  14,C   8,C   6,H  17)    -60.3559         0.010000   
     90. D(C  14,C   8,C   6,C   5)     62.4620         0.010000   
     91. D(N   4,C   8,C   6,H  16)    -57.3542         0.010000   
     92. D(C  14,C   8,C   6,H  16)   -175.4364         0.010000   
     93. D(N   4,C   8,C   6,H  17)     57.7263         0.010000   
     94. D(C  14,C   8,N   4,H  24)    179.4355         0.015347   
     95. D(C  12,C   9,C   7,C  11)     -0.0007         0.025692   
     96. D(N   3,C   9,C   7,C  11)   -179.9874         0.025692   
     97. D(N   3,C   9,C   7,C   5)      0.0050         0.025692   
     98. D(C  12,C   9,N   3,H  20)      0.0237         0.027770   
     99. D(C  12,C   9,C   7,C   5)    179.9917         0.025692   
    100. D(C  12,C   9,N   3,C  10)   -179.9915         0.027770   
    101. D(C   7,C   9,N   3,H  20)   -179.9910         0.027770   
    102. D(C   7,C   9,N   3,C  10)     -0.0062         0.027770   
    103. D(C   5,C  10,N   3,H  20)    179.9897         0.029435   
    104. D(C   5,C  10,N   3,C   9)      0.0049         0.029435   
    105. D(H  19,C  10,N   3,C   9)   -179.9528         0.029435   
    106. D(H  19,C  10,C   5,C   7)    179.9497         0.030195   
    107. D(H  19,C  10,C   5,C   6)     -0.0810         0.030195   
    108. D(N   3,C  10,C   5,C   7)     -0.0016         0.030195   
    109. D(N   3,C  10,C   5,C   6)    179.9677         0.030195   
    110. D(H  19,C  10,N   3,H  20)      0.0319         0.029435   
    111. D(H  21,C  11,C   7,C   9)    179.6434         0.023318   
    112. D(H  21,C  11,C   7,C   5)     -0.3465         0.023318   
    113. D(C  13,C  11,C   7,C   9)     -0.0029         0.023318   
    114. D(C  13,C  11,C   7,C   5)   -179.9928         0.023318   
    115. D(H  22,C  12,C   9,C   7)    179.9982         0.025129   
    116. D(H  22,C  12,C   9,N   3)     -0.0185         0.025129   
    117. D(C  15,C  12,C   9,C   7)      0.0017         0.025129   
    118. D(C  15,C  12,C   9,N   3)    179.9850         0.025129   
    119. D(C  15,C  13,C  11,H  21)   -179.6461         0.025101   
    120. D(C  15,C  13,C  11,C   7)      0.0056         0.025101   
    121. D(F   0,C  13,C  11,H  21)      0.3484         0.025101   
    122. D(F   0,C  13,C  11,C   7)   -179.9999         0.025101   
    123. D(O   2,C  14,C   8,N   4)    -33.5226         0.011218   
    124. D(O   1,C  14,C   8,H  18)     27.9526         0.011218   
    125. D(O   1,C  14,C   8,C   6)    -94.5439         0.011218   
    126. D(O   1,C  14,C   8,N   4)    145.1803         0.011218   
    127. D(C   8,C  14,O   1,H  26)   -179.5563         0.028941   
    128. D(O   2,C  14,C   8,C   6)     86.7533         0.011218   
    129. D(O   2,C  14,O   1,H  26)     -0.8160         0.028941   
    130. D(H  25,C  15,C  13,F   0)      0.0043         0.026304   
    131. D(C  12,C  15,C  13,C  11)     -0.0047         0.026304   
    132. D(C  12,C  15,C  13,F   0)   -179.9993         0.026304   
    133. D(H  25,C  15,C  12,H  22)      0.0009         0.025455   
    134. D(H  25,C  15,C  12,C   9)    179.9975         0.025455   
    135. D(C  13,C  15,C  12,H  22)   -179.9955         0.025455   
    136. D(H  25,C  15,C  13,C  11)    179.9989         0.026304   
    137. D(C  13,C  15,C  12,C   9)      0.0011         0.025455   
    -----------------------------------------------------------------

Number of atoms                         .... 27
Number of degrees of freedom            .... 137


         *************************************************************
         *                GEOMETRY OPTIMIZATION CYCLE   1            *
         *************************************************************
---------------------------------
CARTESIAN COORDINATES (ANGSTROEM)
---------------------------------
  F     -2.542400    2.711500    0.578500
  O      1.591100    0.710400   -1.824800
  O      2.368400    2.129000   -0.236100
  N     -1.129900   -2.471800   -0.393200
  N      4.036200    0.115500    0.654200
  C      0.476500   -1.226800    0.499300
  C      1.777100   -0.805600    1.058500
  C     -0.678800   -0.412200    0.335700
  C      2.775800   -0.263400    0.009900
  C     -1.671900   -1.217500   -0.226100
  C      0.168100   -2.487400    0.042200
  C     -0.975800    0.937100    0.612700
  C     -2.952300   -0.738900   -0.525900
  C     -2.252300    1.429500    0.318000
  C      2.234100    0.988100   -0.660400
  C     -3.223900    0.602600   -0.242500
  H      2.234700   -1.658600    1.578600
  H      1.606500   -0.044200    1.832100
  H      2.987000   -1.018700   -0.756100
  H      0.754200   -3.394100   -0.013600
  H     -1.619900   -3.265900   -0.781500
  H     -0.234500    1.596200    1.054600
  H     -3.709300   -1.381800   -0.962300
  H      4.714100    0.388800   -0.056600
  H      4.433400   -0.695300    1.127300
  H     -4.208700    1.006200   -0.463200
  H      1.249800    1.522500   -2.256300

----------------------------
CARTESIAN COORDINATES (A.U.)
----------------------------
  NO LB      ZA    FRAG     MASS         X           Y           Z
   0 F     9.0000    0    18.998   -4.804440    5.123992    1.093207
   1 O     8.0000    0    15.999    3.006743    1.342461   -3.448372
   2 O     8.0000    0    15.999    4.475627    4.023227   -0.446164
   3 N     7.0000    0    14.007   -2.135202   -4.671025   -0.743040
   4 N     7.0000    0    14.007    7.627313    0.218263    1.236259
   5 C     6.0000    0    12.011    0.900455   -2.318316    0.943540
   6 C     6.0000    0    12.011    3.358232   -1.522363    2.000275
   7 C     6.0000    0    12.011   -1.282746   -0.778945    0.634381
   8 C     6.0000    0    12.011    5.245502   -0.497754    0.018708
   9 C     6.0000    0    12.011   -3.159433   -2.300742   -0.427267
  10 C     6.0000    0    12.011    0.317663   -4.700505    0.079746
  11 C     6.0000    0    12.011   -1.843995    1.770862    1.157835
  12 C     6.0000    0    12.011   -5.579038   -1.396319   -0.993807
  13 C     6.0000    0    12.011   -4.256230    2.701364    0.600933
  14 C     6.0000    0    12.011    4.221837    1.867238   -1.247975
  15 C     6.0000    0    12.011   -6.092288    1.138749   -0.458259
  16 H     1.0000    0     1.008    4.222971   -3.134300    2.983122
  17 H     1.0000    0     1.008    3.035845   -0.083526    3.462167
  18 H     1.0000    0     1.008    5.644612   -1.925064   -1.428822
  19 H     1.0000    0     1.008    1.425231   -6.413919   -0.025700
  20 H     1.0000    0     1.008   -3.061167   -6.171657   -1.476821
  21 H     1.0000    0     1.008   -0.443141    3.016381    1.992905
  22 H     1.0000    0     1.008   -7.009561   -2.611224   -1.818483
  23 H     1.0000    0     1.008    8.908358    0.734726   -0.106958
  24 H     1.0000    0     1.008    8.377912   -1.313927    2.130288
  25 H     1.0000    0     1.008   -7.953290    1.901442   -0.875321
  26 H     1.0000    0     1.008    2.361780    2.877108   -4.263789

--------------------------------
INTERNAL COORDINATES (ANGSTROEM)
--------------------------------
 F      0   0   0     0.000000000000     0.00000000     0.00000000
 O      1   0   0     5.183249400714     0.00000000     0.00000000
 O      2   1   0     2.267286691180    72.95927635     0.00000000
 N      2   1   3     4.424897332142    68.73049784   127.33785300
 N      3   2   1     2.761950973497    88.66815652   129.40246643
 C      4   2   1     2.219707685710    44.08550275   277.65909031
 C      6   4   2     1.477049234115   161.69781945   254.63056467
 C      6   4   2     1.423044697120    71.77853501    74.71236506
 C      5   3   2     1.465365435651    61.79580882   331.70132246
 C      4   2   1     1.376573608638    68.04434130     7.09400279
 C      4   2   1     1.369167820247    61.84310055   237.47147190
 C      8   6   4     1.409094918733   134.15966685   179.98764140
 C     10   4   2     1.399414934892   130.23038088   133.66056768
 C      1   2   3     1.339978455051    50.79068482   230.08445530
 C      3   2   1     1.224630470795    30.31376023   111.88563179
 C     14   1   2     1.393531635809   119.66693298   227.67683886
 H      7   6   4     1.098867949301   108.93605982   327.96764606
 H      7   6   4     1.098768073799   109.11357025   213.11740748
 H      9   5   3     1.096284420212   108.64237757   130.69275735
 H     11   4   2     1.081078970288   120.47123465   229.61220975
 H      4   2   1     1.010678831281   137.63614350   125.30225287
 H     12   8   6     1.085916253677   121.15186316   359.65349703
 H     13  10   4     1.084810753081   121.46452052     0.00000000
 H      5   3   2     1.019547909615    88.93145593    84.64557970
 H      5   3   2     1.019307652282   164.75406975   273.58761608
 H     16  14   1     1.086937206098   119.54053121     0.00000000
 H      2   1   3     0.980909960190    66.85009138   268.38805762

---------------------------
INTERNAL COORDINATES (A.U.)
---------------------------
 F      0   0   0     0.000000000000     0.00000000     0.00000000
 O      1   0   0     9.794921851161     0.00000000     0.00000000
 O      2   1   0     4.284550913414    72.95927635     0.00000000
 N      2   1   3     8.361844128468    68.73049784   127.33785300
 N      3   2   1     5.219330935226    88.66815652   129.40246643
 C      4   2   1     4.194639623352    44.08550275   277.65909031
 C      6   4   2     2.791218538796   161.69781945   254.63056467
 C      6   4   2     2.689164753885    71.77853501    74.71236506
 C      5   3   2     2.769139359494    61.79580882   331.70132246
 C      4   2   1     2.601347123510    68.04434130     7.09400279
 C      4   2   1     2.587352211645    61.84310055   237.47147190
 C      8   6   4     2.662803493106   134.15966685   179.98764140
 C     10   4   2     2.644510974666   130.23038088   133.66056768
 C      1   2   3     2.532192305401    50.79068482   230.08445530
 C      3   2   1     2.314216205058    30.31376023   111.88563179
 C     14   1   2     2.633393150634   119.66693298   227.67683886
 H      7   6   4     2.076559481522   108.93605982   327.96764606
 H      7   6   4     2.076370744176   109.11357025   213.11740748
 H      9   5   3     2.071677319086   108.64237757   130.69275735
 H     11   4   2     2.042943182987   120.47123465   229.61220975
 H      4   2   1     1.909906200473   137.63614350   125.30225287
 H     12   8   6     2.052084323823   121.15186316   359.65349703
 H     13  10   4     2.049995230456   121.46452052     0.00000000
 H      5   3   2     1.926666329584    88.93145593    84.64557970
 H      5   3   2     1.926212309023   164.75406975   273.58761608
 H     16  14   1     2.054013644295   119.54053121     0.00000000
 H      2   1   3     1.853651186795    66.85009138   268.38805762

---------------------
BASIS SET INFORMATION
---------------------
There are 5 groups of distinct atoms

 Group   1 Type F   : 10s4p1d contracted to 3s2p1d pattern {631/31/1}
 Group   2 Type O   : 10s4p1d contracted to 3s2p1d pattern {631/31/1}
 Group   3 Type N   : 10s4p1d contracted to 3s2p1d pattern {631/31/1}
 Group   4 Type C   : 10s4p1d contracted to 3s2p1d pattern {631/31/1}
 Group   5 Type H   : 4s1p contracted to 2s1p pattern {31/1}

Atom   0F    basis set group =>   1
Atom   1O    basis set group =>   2
Atom   2O    basis set group =>   2
Atom   3N    basis set group =>   3
Atom   4N    basis set group =>   3
Atom   5C    basis set group =>   4
Atom   6C    basis set group =>   4
Atom   7C    basis set group =>   4
Atom   8C    basis set group =>   4
Atom   9C    basis set group =>   4
Atom  10C    basis set group =>   4
Atom  11C    basis set group =>   4
Atom  12C    basis set group =>   4
Atom  13C    basis set group =>   4
Atom  14C    basis set group =>   4
Atom  15C    basis set group =>   4
Atom  16H    basis set group =>   5
Atom  17H    basis set group =>   5
Atom  18H    basis set group =>   5
Atom  19H    basis set group =>   5
Atom  20H    basis set group =>   5
Atom  21H    basis set group =>   5
Atom  22H    basis set group =>   5
Atom  23H    basis set group =>   5
Atom  24H    basis set group =>   5
Atom  25H    basis set group =>   5
Atom  26H    basis set group =>   5
---------------------------------
AUXILIARY/J BASIS SET INFORMATION
---------------------------------
There are 5 groups of distinct atoms

 Group   1 Type F   : 12s5p4d2f1g contracted to 6s4p3d1f1g pattern {711111/2111/211/2/1}
 Group   2 Type O   : 12s5p4d2f1g contracted to 6s4p3d1f1g pattern {711111/2111/211/2/1}
 Group   3 Type N   : 12s5p4d2f1g contracted to 6s4p3d1f1g pattern {711111/2111/211/2/1}
 Group   4 Type C   : 12s5p4d2f1g contracted to 6s4p3d1f1g pattern {711111/2111/211/2/1}
 Group   5 Type H   : 5s2p1d contracted to 3s1p1d pattern {311/2/1}

Atom   0F    basis set group =>   1
Atom   1O    basis set group =>   2
Atom   2O    basis set group =>   2
Atom   3N    basis set group =>   3
Atom   4N    basis set group =>   3
Atom   5C    basis set group =>   4
Atom   6C    basis set group =>   4
Atom   7C    basis set group =>   4
Atom   8C    basis set group =>   4
Atom   9C    basis set group =>   4
Atom  10C    basis set group =>   4
Atom  11C    basis set group =>   4
Atom  12C    basis set group =>   4
Atom  13C    basis set group =>   4
Atom  14C    basis set group =>   4
Atom  15C    basis set group =>   4
Atom  16H    basis set group =>   5
Atom  17H    basis set group =>   5
Atom  18H    basis set group =>   5
Atom  19H    basis set group =>   5
Atom  20H    basis set group =>   5
Atom  21H    basis set group =>   5
Atom  22H    basis set group =>   5
Atom  23H    basis set group =>   5
Atom  24H    basis set group =>   5
Atom  25H    basis set group =>   5
Atom  26H    basis set group =>   5


           ************************************************************
           *        Program running with 2 parallel MPI-processes     *
           *              working on a common directory               *
           ************************************************************
------------------------------------------------------------------------------
                             ORCA STARTUP CALCULATIONS
                           -- RI-GTO INTEGRALS CHOSEN --
------------------------------------------------------------------------------
------------------------------------------------------------------------------
                   ___                                                        
                  /   \      - P O W E R E D   B Y -                         
                 /     \                                                     
                 |  |  |   _    _      __       _____    __    __             
                 |  |  |  | |  | |    /  \     |  _  \  |  |  /  |          
                  \  \/   | |  | |   /    \    | | | |  |  | /  /          
                 / \  \   | |__| |  /  /\  \   | |_| |  |  |/  /          
                |  |  |   |  __  | /  /__\  \  |    /   |      \           
                |  |  |   | |  | | |   __   |  |    \   |  |\   \          
                \     /   | |  | | |  |  |  |  | |\  \  |  | \   \       
                 \___/    |_|  |_| |__|  |__|  |_| \__\ |__|  \__/        
                                                                              
                      - O R C A' S   B I G   F R I E N D -                    
                                      &                                       
                       - I N T E G R A L  F E E D E R -                       
                                                                              
 v1 FN, 2020, v2 2021, v3 2022-2024                                           
------------------------------------------------------------------------------


----------------------
SHARK INTEGRAL PACKAGE
----------------------

Number of atoms                             ...     27
Number of basis functions                   ...    279
Number of shells                            ...    129
Maximum angular momentum                    ...      2
Integral batch strategy                     ... SHARK/LIBINT Hybrid
RI-J (if used) integral strategy            ... SPLIT-RIJ (Revised 2003 algorithm where possible)
Printlevel                                  ...      1
Contraction scheme used                     ... SEGMENTED contraction
Prescreening option                         ... SCHWARTZ
   Thresh                                   ... 2.500e-11
   Tcut                                     ... 2.500e-12
   Tpresel                                  ... 2.500e-12 
Coulomb Range Separation                    ... NOT USED
Exchange Range Separation                   ... NOT USED
Multipole approximations                    ... NOT USED
Finite Nucleus Model                        ... NOT USED
CABS basis                                  ... NOT available
Auxiliary Coulomb fitting basis             ... AVAILABLE
   # of basis functions in Aux-J            ...    905
   # of shells in Aux-J                     ...    295
   Maximum angular momentum in Aux-J        ...      4
Auxiliary J/K fitting basis                 ... NOT available
Auxiliary Correlation fitting basis         ... NOT available
Auxiliary 'external' fitting basis          ... NOT available

Checking pre-screening integrals            ... done (  0.0 sec) Dimension = 129
   => SHARK Basis and OBASIS are compatible. Storing Pre-screening
Shell pair information
Shell pair cut-off parameter TPreSel        ...   2.5e-12
Total number of shell pairs                 ...      8385
Shell pairs after pre-screening             ...      6745
Total number of primitive shell pairs       ...     44029
Primitive shell pairs kept                  ...     21197
          la=0 lb=0:   1969 shell pairs
          la=1 lb=0:   2449 shell pairs
          la=1 lb=1:    801 shell pairs
          la=2 lb=0:    864 shell pairs
          la=2 lb=1:    555 shell pairs
          la=2 lb=2:    107 shell pairs

Checking whether 4 symmetric matrices of dimension 279 fit in memory
:Max Core in MB      =   3000.00
 MB in use           =     12.60
 MB left             =   2987.40
 MB needed           =      1.19
 Data fit in memory  = YES
Calculating RI/J V-Matrix + Cholesky decomp.... done (  0.1 sec)
Calculating Nuclear repulsion               ... done (  0.0 sec) ENN=   1093.928500051845 Eh

Diagonalization of the overlap matrix:
Smallest eigenvalue                        ... 3.702e-04
Time for diagonalization                   ...    0.013 sec
Threshold for overlap eigenvalues          ... 1.000e-07
Number of eigenvalues below threshold      ... 0
Time for construction of square roots      ...    0.006 sec
Total time needed                          ...    0.020 sec

-------------------
DFT GRID GENERATION
-------------------

General Integration Accuracy     IntAcc      ... 4.388
Radial Grid Type                 RadialGrid  ... OptM3 with GC (2021)
Angular Grid (max. ang.)         AngularGrid ... 4 (Lebedev-302)
Angular grid pruning method      GridPruning ... 4 (adaptive)
Weight generation scheme         WeightScheme... mBecke (2022)
Basis function cutoff            BFCut       ... 1.0000e-11
Integration weight cutoff        WCut        ... 1.0000e-14
Partially contracted basis set               ... off
Rotationally invariant grid construction     ... off
Angular grids for H and He will be reduced by one unit

Total number of grid points                  ...   131083
Total number of batches                      ...     2064
Average number of points per batch           ...       63
Average number of grid points per atom       ...     4855

--------------------
COSX GRID GENERATION
--------------------

GRIDX 1
-------
General Integration Accuracy     IntAcc      ... 3.816
Radial Grid Type                 RadialGrid  ... OptM3 with GC (2021)
Angular Grid (max. ang.)         AngularGrid ... 1 (Lebedev-50)
Angular grid pruning method      GridPruning ... 4 (adaptive)
Weight generation scheme         WeightScheme... mBecke (2022)
Basis function cutoff            BFCut       ... 1.0000e-11
Integration weight cutoff        WCut        ... 1.0000e-14
Partially contracted basis set               ... on
Rotationally invariant grid construction     ... off
Angular grids for H and He will be reduced by one unit

Total number of grid points                  ...    16648
Total number of batches                      ...      145
Average number of points per batch           ...      114
Average number of grid points per atom       ...      617
UseSFitting                                  ... on

GRIDX 2
-------
General Integration Accuracy     IntAcc      ... 4.020
Radial Grid Type                 RadialGrid  ... OptM3 with GC (2021)
Angular Grid (max. ang.)         AngularGrid ... 2 (Lebedev-110)
Angular grid pruning method      GridPruning ... 4 (adaptive)
Weight generation scheme         WeightScheme... mBecke (2022)
Basis function cutoff            BFCut       ... 1.0000e-11
Integration weight cutoff        WCut        ... 1.0000e-14
Partially contracted basis set               ... on
Rotationally invariant grid construction     ... off
Angular grids for H and He will be reduced by one unit

Total number of grid points                  ...    36590
Total number of batches                      ...      301
Average number of points per batch           ...      121
Average number of grid points per atom       ...     1355
UseSFitting                                  ... on

GRIDX 3
-------
General Integration Accuracy     IntAcc      ... 4.338
Radial Grid Type                 RadialGrid  ... OptM3 with GC (2021)
Angular Grid (max. ang.)         AngularGrid ... 3 (Lebedev-194)
Angular grid pruning method      GridPruning ... 4 (adaptive)
Weight generation scheme         WeightScheme... mBecke (2022)
Basis function cutoff            BFCut       ... 1.0000e-11
Integration weight cutoff        WCut        ... 1.0000e-14
Partially contracted basis set               ... on
Rotationally invariant grid construction     ... off
Angular grids for H and He will be reduced by one unit

Total number of grid points                  ...    80167
Total number of batches                      ...      638
Average number of points per batch           ...      125
Average number of grid points per atom       ...     2969
UseSFitting                                  ... on
Grids setup in   3.6 sec
Initializing property integral containers    ... done (  0.0 sec)

SHARK setup successfully completed in   4.2 seconds

Maximum memory used throughout the entire STARTUP-calculation: 45.8 MB


           ************************************************************
           *        Program running with 2 parallel MPI-processes     *
           *              working on a common directory               *
           ************************************************************
-------------------------------------------------------------------------------
                                 ORCA GUESS
                   Start orbitals & Density for SCF / CASSCF
-------------------------------------------------------------------------------

------------
SCF SETTINGS
------------
Hamiltonian:
 Density Functional     Method          .... DFT(GTOs)
 Exchange Functional    Exchange        .... B88
   X-Alpha parameter    XAlpha          ....  0.666667
   Becke's b parameter  XBeta           ....  0.004200
 Correlation Functional Correlation     .... LYP
 LDA part of GGA corr.  LDAOpt          .... VWN-5
 Gradients option       PostSCFGGA      .... off
 Hybrid DFT is turned on
   Fraction HF Exchange ScalHFX         ....  0.200000
   Scaling of DF-GGA-X  ScalDFX         ....  0.720000
   Scaling of DF-GGA-C  ScalDFC         ....  0.810000
   Scaling of DF-LDA-C  ScalLDAC        ....  1.000000
   Perturbative correction              ....  0.000000
   NL short-range parameter             ....  4.800000
 RI-approximation to the Coulomb term is turned on
   Number of AuxJ basis functions       .... 905
   RIJ-COSX (HFX calculated with COS-X)).... on


General Settings:
 Integral files         IntName         .... /kaggle/working/Trp-F-1/Trp-F_InterFrag
 Hartree-Fock type      HFTyp           .... RHF
 Total Charge           Charge          ....    0
 Multiplicity           Mult            ....    1
 Number of Electrons    NEL             ....  116
 Basis Dimension        Dim             ....  279
 Nuclear Repulsion      ENuc            ....   1093.9285000518 Eh

Convergence Acceleration:
 AO-DIIS                CNVDIIS         .... on
   Start iteration      DIISMaxIt       ....    12
   Startup error        DIISStart       ....  0.200000
   # of expansion vecs  DIISMaxEq       ....     5
   Bias factor          DIISBfac        ....   1.050
   Max. coefficient     DIISMaxC        ....  10.000
 MO-DIIS                CNVKDIIS        .... off
 Trust-Rad. Augm. Hess. CNVTRAH         .... auto
   Auto Start mean grad. ratio tolernc. ....  1.125000
   Auto Start start iteration           ....    50
   Auto Start num. interpolation iter.  ....    10
   Max. Number of Micro iterations      ....    24
   Max. Number of Macro iterations      .... Maxiter - #DIIS iter
   Number of Davidson start vectors     ....     2
   Converg. threshold    (grad. norm)   ....   1.000e-05
   Grad. Scal. Fac. for Micro threshold ....   0.100
   Minimum threshold for Micro iter.    ....   1.000e-02
   NR start threshold (gradient norm)   ....   1.000e-04
   Initial trust radius                 ....   0.400
   Minimum AH scaling param. (alpha)    ....   1.000
   Maximum AH scaling param. (alpha)    .... 1000.000
   Quad. conv. algorithm                .... NR
   White noise on init. David. guess    .... on
   Maximum white noise                  ....   0.010
   Pseudo random numbers                .... off
   Inactive MOs                         .... canonical
   Orbital update algorithm             .... Taylor
   Preconditioner                       .... Diag
   Full preconditioner red. dimension   ....   250
 SOSCF                 CNVSOSCF           .... on
   Start iteration     SOSCFMaxIt         ....   150
   Startup grad/error  SOSCFStart         ....  0.000330
   Hessian update      SOSCFHessUp        .... L-BFGS
   Autom. constraints  SOSCFAutoConstrain .... off
 Level Shifting         CNVShift        .... on
   Level shift para.    LevelShift      ....    0.2500
   Turn off err/grad.   ShiftErr        ....    0.0010
 Zerner damping         CNVZerner       .... off
 Static damping         CNVDamp         .... on
   Fraction old density DampFac         ....    0.7000
   Max. Damping (<1)    DampMax         ....    0.9800
   Min. Damping (>=0)   DampMin         ....    0.0000
   Turn off err/grad.   DampErr         ....    0.1000

SCF Procedure:
 Maximum # iterations   MaxIter         ....  1000
 SCF integral mode      SCFMode         .... Direct
   Integral package                     .... SHARK and LIBINT hybrid scheme
 Reset frequency        DirectResetFreq ....    20
 Integral Threshold     Thresh          ....  2.500e-11 Eh
 Primitive CutOff       TCut            ....  2.500e-12 Eh

Convergence Tolerance:
 Convergence Check Mode ConvCheckMode   .... Total+1el-Energy
 Convergence forced     ConvForced      .... 0
 Energy Change          TolE            ....  1.000e-08 Eh
 1-El. energy change                    ....  1.000e-05 Eh
 Orbital Gradient       TolG            ....  1.000e-05
 Orbital Rotation angle TolX            ....  1.000e-05
 DIIS Error             TolErr          ....  5.000e-07

------------------------------
INITIAL GUESS: MODEL POTENTIAL
------------------------------
Loading Hartree-Fock densities                     ... done
Calculating cut-offs                               ... done
Initializing the effective Hamiltonian             ... done
Setting up the integral package (SHARK)            ... done
Starting the Coulomb interaction                   ... done (   0.5 sec)
Making the grid                                    ... done (   0.5 sec)
Mapping shells                                     ... done
Starting the XC term evaluation                    ... done (   0.3 sec)
  promolecular density results
     # of electrons  =    115.993047748
     EX              =    -99.497164978
     EC              =     -4.014134545
     EX+EC           =   -103.511299523
Transforming the Hamiltonian                       ... done (   0.0 sec)
Diagonalizing the Hamiltonian                      ... done (   0.0 sec)
Back transforming the eigenvectors                 ... done (   0.0 sec)
Now organizing SCF variables                       ... done
                      ------------------
                      INITIAL GUESS DONE (   1.4 sec)
                      ------------------
             **** ENERGY FILE WAS UPDATED (/kaggle/working/Trp-F-1/Trp-F_InterFrag.en.tmp) ****
Finished Guess after   1.8 sec
Maximum memory used throughout the entire GUESS-calculation: 18.3 MB


           ************************************************************
           *        Program running with 2 parallel MPI-processes     *
           *              working on a common directory               *
           ************************************************************

-------------------------------------------------------------------------------------------
                                      ORCA LEAN-SCF
                              memory conserving SCF solver
-------------------------------------------------------------------------------------------

--------------------
CPCM SOLVATION MODEL
--------------------
CPCM parameters:
  Epsilon                                         ...      78.3550
  Refrac                                          ...       1.3328
  Rsolv                                           ...       1.3000
  Surface type                                    ... GAUSSIAN VDW
  Discretization scheme                           ... Constant charge density
    Threshold for H atoms                         ...       5.0000 (charges/Ang^2)
    Threshold for non-H atoms                     ...       5.0000 (charges/Ang^2)
  Epsilon function type                           ...         CPCM
Solvent:                                          ... WATER
SMD-CDS solvent descriptors:
  Soln                                            ...       1.3328
  Soln25                                          ...       1.3323
  Sola                                            ...       0.0000
  Solb                                            ...       0.0000
  Solg                                            ...       0.0000
  Solc                                            ...       0.0000
  Solh                                            ...       0.0000
Radii:
  Scheme                                          ... Element-dependent radii
  Radius for F  used is    3.2692 Bohr (=   1.7300 Ang.)
  Radius for O  used is    2.8724 Bohr (=   1.5200 Ang.)
  Radius for N  used is    3.5716 Bohr (=   1.8900 Ang.)
  Radius for C  used is    3.4960 Bohr (=   1.8500 Ang.)
  Radius for H  used is    2.2677 Bohr (=   1.2000 Ang.)
Calculating surface                               ...        done! (  0.0s)
Cavity surface points                             ...         2104
Cavity Volume                                     ...    1454.1319
Cavity Surface-area                               ...     861.6439
Calculating surface distance matrix               ...        done! (  0.1s)
Performing Cholesky decomposition & store         ...        done! (  0.2s)
Overall time for CPCM initialization              ...                 0.3s

----------------------------------------D-I-I-S--------------------------------------------
Iteration    Energy (Eh)           Delta-E    RMSDP     MaxDP     DIISErr   Damp  Time(sec)
-------------------------------------------------------------------------------------------
               ***  Starting incremental Fock matrix formation  ***
    1    -784.7840749004947156     0.00e+00  3.44e-03  9.10e-02  2.63e-01  0.700  11.5
    2    -784.9733266896473651    -1.89e-01  2.31e-03  5.22e-02  1.14e-01  0.700   5.9
                               ***Turning on AO-DIIS***
    3    -785.0488287656894499    -7.55e-02  9.79e-04  1.64e-02  3.52e-02  0.700   5.8
    4    -785.0941945452609616    -4.54e-02  1.77e-03  2.61e-02  1.74e-02  0.000   5.5
    5    -785.1931243087533403    -9.89e-02  3.30e-04  6.38e-03  5.80e-03  0.000   5.7
    6    -785.1937129446237122    -5.89e-04  1.09e-04  2.34e-03  2.31e-03  0.000   5.2
    7    -785.1937497360916041    -3.68e-05  4.16e-05  8.10e-04  7.94e-04  0.000   4.8
               *** Restarting incremental Fock matrix formation ***
                             ****Resetting DIIS****
    8    -785.1937754973453139    -2.58e-05  3.34e-05  1.10e-03  6.40e-04  0.000  11.2
    9    -785.1937739398590566     1.56e-06  1.77e-05  8.21e-04  1.15e-03  0.000   7.3
                              *** Initializing SOSCF ***
---------------------------------------S-O-S-C-F--------------------------------------
Iteration    Energy (Eh)           Delta-E    RMSDP     MaxDP     MaxGrad    Time(sec)
--------------------------------------------------------------------------------------
   10    -785.1937767362039722    -2.80e-06  3.41e-06  9.49e-05  1.05e-04     4.0
               *** Restarting incremental Fock matrix formation ***
   11    -785.1937768665254680    -1.30e-07  4.06e-06  1.11e-04  3.11e-05    11.1
   12    -785.1937768395885087     2.69e-08  2.46e-06  7.83e-05  6.04e-05     5.5
   13    -785.1937768837306066    -4.41e-08  7.27e-07  2.33e-05  6.12e-06     5.0
   14    -785.1937768727750608     1.10e-08  4.67e-07  1.45e-05  8.54e-06     4.3
   15    -785.1937768816558219    -8.88e-09  7.80e-08  1.67e-06  4.15e-07     3.8
                 **** Energy Check signals convergence ****

               *****************************************************
               *                     SUCCESS                       *
               *           SCF CONVERGED AFTER  15 CYCLES          *
               *****************************************************

Recomputing exchange energy using gridx3       ... done (   17.105 sec)
Old exchange energy                            :    -20.175347365 Eh
New exchange energy                            :    -20.175338588 Eh
Exchange energy change after final integration :      0.000008776 Eh
Total energy after final integration           :   -785.193768116 Eh

SMD CDS free energy correction energy :                 5.85376     Kcal/mol
Total Energy after SMD CDS correction =              -785.184439555 Eh
             **** ENERGY FILE WAS UPDATED (/kaggle/working/Trp-F-1/Trp-F_InterFrag.en.tmp) ****

----------------
TOTAL SCF ENERGY
----------------

Total Energy       :       -785.18443955478597 Eh          -21365.95482 eV

Components:
Nuclear Repulsion  :       1093.92850005184459 Eh           29767.30783 eV
Electronic Energy  :      -1879.07860469008665 Eh          -51132.32835 eV
One Electron Energy:      -3245.41911430084701 Eh          -88312.34381 eV
Two Electron Energy:       1366.34050961076036 Eh           37180.01546 eV
CPCM Dielectric    :         -0.04367225388730 Eh              -1.18838 eV
SMD CDS (Gcds)     :          0.00932856098282 Eh               0.25384 eV

Virial components:
Potential Energy   :      -1565.80696753808706 Eh          -42607.77372 eV
Kinetic Energy     :        780.62252798330098 Eh           21241.81890 eV
Virial Ratio       :          2.00584394045515

DFT components:
N(Alpha)           :       58.000029079760 electrons
N(Beta)            :       58.000029079760 electrons
N(Total)           :      116.000058159520 electrons
E(X)               :      -80.173501516407 Eh       
E(C)               :       -4.727261805233 Eh       
E(XC)              :      -84.900763321640 Eh       

CPCM Solvation Model Properties:
Surface-charge          :         -0.03150584404868
Corrected charge        :          0.00000000000000
Outlying charge corr.   :          0.00006325798524 Eh               0.00172 eV
Free-energy (cav+disp)  :          0.00932856098282 Eh               0.25384 eV

---------------
SCF CONVERGENCE
---------------

  Last Energy change         ...    8.8808e-09  Tolerance :   1.0000e-08
  Last MAX-Density change    ...    1.6714e-06  Tolerance :   1.0000e-07
  Last RMS-Density change    ...    7.7990e-08  Tolerance :   5.0000e-09
  Last DIIS Error            ...    1.0520e-04  Tolerance :   5.0000e-07
  Last Orbital Gradient      ...    4.1509e-07  Tolerance :   1.0000e-05
  Last Orbital Rotation      ...    1.2361e-06  Tolerance :   1.0000e-05


----------------
ORBITAL ENERGIES
----------------

  NO   OCC          E(Eh)            E(eV) 
   0   2.0000     -24.694346      -671.9673 
   1   2.0000     -19.186432      -522.0894 
   2   2.0000     -19.138584      -520.7873 
   3   2.0000     -14.361180      -390.7876 
   4   2.0000     -14.301715      -389.1695 
   5   2.0000     -10.317133      -280.7435 
   6   2.0000     -10.253901      -279.0228 
   7   2.0000     -10.215316      -277.9729 
   8   2.0000     -10.204461      -277.6775 
   9   2.0000     -10.203346      -277.6472 
  10   2.0000     -10.184116      -277.1239 
  11   2.0000     -10.178860      -276.9809 
  12   2.0000     -10.177618      -276.9471 
  13   2.0000     -10.177489      -276.9436 
  14   2.0000     -10.173962      -276.8476 
  15   2.0000     -10.164796      -276.5982 
  16   2.0000      -1.214255       -33.0415 
  17   2.0000      -1.093102       -29.7448 
  18   2.0000      -1.008398       -27.4399 
  19   2.0000      -0.973081       -26.4789 
  20   2.0000      -0.881099       -23.9759 
  21   2.0000      -0.838997       -22.8303 
  22   2.0000      -0.795821       -21.6554 
  23   2.0000      -0.741397       -20.1745 
  24   2.0000      -0.730059       -19.8659 
  25   2.0000      -0.709464       -19.3055 
  26   2.0000      -0.666496       -18.1363 
  27   2.0000      -0.624169       -16.9845 
  28   2.0000      -0.593757       -16.1569 
  29   2.0000      -0.585099       -15.9214 
  30   2.0000      -0.552778       -15.0419 
  31   2.0000      -0.532545       -14.4913 
  32   2.0000      -0.515531       -14.0283 
  33   2.0000      -0.503355       -13.6970 
  34   2.0000      -0.483775       -13.1642 
  35   2.0000      -0.477496       -12.9933 
  36   2.0000      -0.467002       -12.7078 
  37   2.0000      -0.455070       -12.3831 
  38   2.0000      -0.452413       -12.3108 
  39   2.0000      -0.446073       -12.1383 
  40   2.0000      -0.427842       -11.6422 
  41   2.0000      -0.421854       -11.4792 
  42   2.0000      -0.413882       -11.2623 
  43   2.0000      -0.413660       -11.2563 
  44   2.0000      -0.392644       -10.6844 
  45   2.0000      -0.389356       -10.5949 
  46   2.0000      -0.383504       -10.4357 
  47   2.0000      -0.366067        -9.9612 
  48   2.0000      -0.362810        -9.8726 
  49   2.0000      -0.350891        -9.5482 
  50   2.0000      -0.326228        -8.8771 
  51   2.0000      -0.321467        -8.7476 
  52   2.0000      -0.316628        -8.6159 
  53   2.0000      -0.276654        -7.5281 
  54   2.0000      -0.269580        -7.3356 
  55   2.0000      -0.235171        -6.3993 
  56   2.0000      -0.216768        -5.8986 
  57   2.0000      -0.194975        -5.3055 
  58   0.0000      -0.012524        -0.3408 
  59   0.0000       0.002470         0.0672 
  60   0.0000       0.037397         1.0176 
  61   0.0000       0.068800         1.8721 
  62   0.0000       0.098601         2.6831 
  63   0.0000       0.105734         2.8772 
  64   0.0000       0.111299         3.0286 
  65   0.0000       0.120292         3.2733 
  66   0.0000       0.141796         3.8585 
  67   0.0000       0.155358         4.2275 
  68   0.0000       0.166185         4.5221 
  69   0.0000       0.171230         4.6594 
  70   0.0000       0.180081         4.9003 
  71   0.0000       0.187214         5.0944 
  72   0.0000       0.193712         5.2712 
  73   0.0000       0.197083         5.3629 
  74   0.0000       0.203506         5.5377 
  75   0.0000       0.216873         5.9014 
  76   0.0000       0.250054         6.8043 
  77   0.0000       0.257934         7.0187 
  78   0.0000       0.268762         7.3134 
  79   0.0000       0.279486         7.6052 
  80   0.0000       0.286965         7.8087 
  81   0.0000       0.298932         8.1343 
  82   0.0000       0.324542         8.8312 
  83   0.0000       0.344083         9.3630 
  84   0.0000       0.356936         9.7127 
  85   0.0000       0.375688        10.2230 
  86   0.0000       0.378681        10.3044 
  87   0.0000       0.417300        11.3553 
  88   0.0000       0.464117        12.6293 
  89   0.0000       0.491720        13.3804 
  90   0.0000       0.500437        13.6176 
  91   0.0000       0.515616        14.0306 
  92   0.0000       0.528746        14.3879 
  93   0.0000       0.529546        14.4097 
  94   0.0000       0.540284        14.7019 
  95   0.0000       0.548568        14.9273 
  96   0.0000       0.563623        15.3370 
  97   0.0000       0.570674        15.5288 
  98   0.0000       0.586839        15.9687 
  99   0.0000       0.605401        16.4738 
 100   0.0000       0.607756        16.5379 
 101   0.0000       0.609311        16.5802 
 102   0.0000       0.614455        16.7202 
 103   0.0000       0.621809        16.9203 
 104   0.0000       0.631775        17.1915 
 105   0.0000       0.639554        17.4031 
 106   0.0000       0.645311        17.5598 
 107   0.0000       0.653190        17.7742 
 108   0.0000       0.657411        17.8891 
 109   0.0000       0.684760        18.6333 
 110   0.0000       0.687293        18.7022 
 111   0.0000       0.697075        18.9684 
 112   0.0000       0.729076        19.8392 
 113   0.0000       0.745468        20.2852 
 114   0.0000       0.753740        20.5103 
 115   0.0000       0.781000        21.2521 
 116   0.0000       0.792075        21.5535 
 117   0.0000       0.794058        21.6074 
 118   0.0000       0.799903        21.7665 
 119   0.0000       0.813698        22.1418 
 120   0.0000       0.816771        22.2255 
 121   0.0000       0.829283        22.5659 
 122   0.0000       0.836616        22.7655 
 123   0.0000       0.856717        23.3125 
 124   0.0000       0.861018        23.4295 
 125   0.0000       0.868355        23.6292 
 126   0.0000       0.876075        23.8392 
 127   0.0000       0.881996        24.0003 
 128   0.0000       0.896904        24.4060 
 129   0.0000       0.905363        24.6362 
 130   0.0000       0.917626        24.9699 
 131   0.0000       0.932730        25.3809 
 132   0.0000       0.943285        25.6681 
 133   0.0000       0.946596        25.7582 
 134   0.0000       0.959172        26.1004 
 135   0.0000       0.984587        26.7920 
 136   0.0000       0.986500        26.8440 
 137   0.0000       1.001994        27.2657 
 138   0.0000       1.021471        27.7956 
 139   0.0000       1.039733        28.2926 
 140   0.0000       1.058169        28.7942 
 141   0.0000       1.071530        29.1578 
 142   0.0000       1.088286        29.6138 
 143   0.0000       1.105623        30.0855 
 144   0.0000       1.130908        30.7736 
 145   0.0000       1.136092        30.9146 
 146   0.0000       1.144846        31.1528 
 147   0.0000       1.164621        31.6909 
 148   0.0000       1.206334        32.8260 
 149   0.0000       1.214998        33.0618 
 150   0.0000       1.229665        33.4609 
 151   0.0000       1.239278        33.7225 
 152   0.0000       1.255328        34.1592 
 153   0.0000       1.306302        35.5463 
 154   0.0000       1.330338        36.2003 
 155   0.0000       1.335344        36.3365 
 156   0.0000       1.341697        36.5094 
 157   0.0000       1.363653        37.1069 
 158   0.0000       1.366704        37.1899 
 159   0.0000       1.380960        37.5778 
 160   0.0000       1.398028        38.0423 
 161   0.0000       1.401554        38.1382 
 162   0.0000       1.422382        38.7050 
 163   0.0000       1.433415        39.0052 
 164   0.0000       1.445426        39.3321 
 165   0.0000       1.461964        39.7821 
 166   0.0000       1.473567        40.0978 
 167   0.0000       1.494104        40.6566 
 168   0.0000       1.498917        40.7876 
 169   0.0000       1.517294        41.2877 
 170   0.0000       1.569324        42.7035 
 171   0.0000       1.600960        43.5643 
 172   0.0000       1.619597        44.0715 
 173   0.0000       1.644439        44.7475 
 174   0.0000       1.696047        46.1518 
 175   0.0000       1.720097        46.8062 
 176   0.0000       1.739523        47.3348 
 177   0.0000       1.749726        47.6125 
 178   0.0000       1.771507        48.2052 
 179   0.0000       1.775310        48.3086 
 180   0.0000       1.785941        48.5979 
 181   0.0000       1.794527        48.8316 
 182   0.0000       1.820684        49.5433 
 183   0.0000       1.822866        49.6027 
 184   0.0000       1.846231        50.2385 
 185   0.0000       1.856186        50.5094 
 186   0.0000       1.860705        50.6324 
 187   0.0000       1.868341        50.8401 
 188   0.0000       1.872291        50.9476 
 189   0.0000       1.888583        51.3910 
 190   0.0000       1.897703        51.6391 
 191   0.0000       1.912115        52.0313 
 192   0.0000       1.920775        52.2669 
 193   0.0000       1.926333        52.4182 
 194   0.0000       1.945039        52.9272 
 195   0.0000       1.959965        53.3334 
 196   0.0000       1.968031        53.5529 
 197   0.0000       1.972992        53.6878 
 198   0.0000       1.990353        54.1603 
 199   0.0000       2.013222        54.7825 
 200   0.0000       2.033571        55.3363 
 201   0.0000       2.056925        55.9718 
 202   0.0000       2.064379        56.1746 
 203   0.0000       2.089924        56.8697 
 204   0.0000       2.120057        57.6897 
 205   0.0000       2.128662        57.9238 
 206   0.0000       2.145725        58.3881 
 207   0.0000       2.154957        58.6394 
 208   0.0000       2.185083        59.4591 
 209   0.0000       2.208686        60.1014 
 210   0.0000       2.229064        60.6559 
 211   0.0000       2.234947        60.8160 
 212   0.0000       2.243714        61.0545 
 213   0.0000       2.265952        61.6597 
 214   0.0000       2.269232        61.7489 
 215   0.0000       2.289800        62.3086 
 216   0.0000       2.298549        62.5467 
 217   0.0000       2.304086        62.6974 
 218   0.0000       2.321229        63.1639 
 219   0.0000       2.329509        63.3892 
 220   0.0000       2.341439        63.7138 
 221   0.0000       2.371901        64.5427 
 222   0.0000       2.376359        64.6640 
 223   0.0000       2.387002        64.9536 
 224   0.0000       2.405739        65.4635 
 225   0.0000       2.421456        65.8912 
 226   0.0000       2.435237        66.2662 
 227   0.0000       2.438886        66.3655 
 228   0.0000       2.469133        67.1885 
 229   0.0000       2.485281        67.6279 
 230   0.0000       2.496157        67.9239 
 231   0.0000       2.520911        68.5975 
 232   0.0000       2.529303        68.8258 
 233   0.0000       2.539813        69.1118 
 234   0.0000       2.555627        69.5421 
 235   0.0000       2.561393        69.6991 
 236   0.0000       2.584936        70.3397 
 237   0.0000       2.593295        70.5671 
 238   0.0000       2.601921        70.8019 
 239   0.0000       2.626370        71.4672 
 240   0.0000       2.640852        71.8612 
 241   0.0000       2.660913        72.4071 
 242   0.0000       2.668200        72.6054 
 243   0.0000       2.695415        73.3460 
 244   0.0000       2.717068        73.9352 
 245   0.0000       2.729585        74.2758 
 246   0.0000       2.736526        74.4647 
 247   0.0000       2.763641        75.2025 
 248   0.0000       2.771298        75.4109 
 249   0.0000       2.792312        75.9827 
 250   0.0000       2.794929        76.0539 
 251   0.0000       2.805100        76.3306 
 252   0.0000       2.825594        76.8883 
 253   0.0000       2.850786        77.5738 
 254   0.0000       2.887043        78.5604 
 255   0.0000       2.890991        78.6679 
 256   0.0000       2.927121        79.6510 
 257   0.0000       2.932427        79.7954 
 258   0.0000       2.989044        81.3360 
 259   0.0000       3.011340        81.9427 
 260   0.0000       3.034460        82.5719 
 261   0.0000       3.069477        83.5247 
 262   0.0000       3.108399        84.5838 
 263   0.0000       3.120132        84.9031 
 264   0.0000       3.171143        86.2912 
 265   0.0000       3.192772        86.8797 
 266   0.0000       3.227788        87.8326 
 267   0.0000       3.296985        89.7155 
 268   0.0000       3.312754        90.1446 
 269   0.0000       3.338871        90.8553 
 270   0.0000       3.359172        91.4077 
 271   0.0000       3.415701        92.9459 
 272   0.0000       3.457099        94.0724 
 273   0.0000       3.471312        94.4592 
 274   0.0000       3.506674        95.4214 
 275   0.0000       3.518751        95.7501 
 276   0.0000       3.541797        96.3772 
 277   0.0000       3.789828       103.1265 
 278   0.0000       3.816199       103.8441 

                    ********************************
                    * MULLIKEN POPULATION ANALYSIS *
                    ********************************

-----------------------
MULLIKEN ATOMIC CHARGES
-----------------------
   0 F :   -0.330068
   1 O :   -0.507176
   2 O :   -0.514144
   3 N :   -0.538349
   4 N :   -0.638575
   5 C :   -0.009641
   6 C :   -0.243358
   7 C :    0.080285
   8 C :    0.012593
   9 C :    0.213634
  10 C :    0.024801
  11 C :   -0.256604
  12 C :   -0.115155
  13 C :    0.360691
  14 C :    0.571804
  15 C :   -0.202366
  16 H :    0.128657
  17 H :    0.121114
  18 H :    0.122523
  19 H :    0.149088
  20 H :    0.307846
  21 H :    0.113959
  22 H :    0.126126
  23 H :    0.266428
  24 H :    0.267313
  25 H :    0.116870
  26 H :    0.371707
Sum of atomic charges:   -0.0000000

--------------------------------
MULLIKEN REDUCED ORBITAL CHARGES
--------------------------------
  0 F s       :     3.963951  s :     3.963951
      pz      :     1.894707  p :     5.349033
      px      :     1.908296
      py      :     1.546029
      dz2     :     0.002063  d :     0.017085
      dxz     :     0.000493
      dyz     :     0.004700
      dx2y2   :     0.005401
      dxy     :     0.004428

  1 O s       :     3.827287  s :     3.827287
      pz      :     1.421297  p :     4.658899
      px      :     1.642868
      py      :     1.594734
      dz2     :     0.004907  d :     0.020990
      dxz     :     0.003600
      dyz     :     0.005450
      dx2y2   :     0.003570
      dxy     :     0.003464

  2 O s       :     3.850490  s :     3.850490
      pz      :     1.668381  p :     4.638073
      px      :     1.546421
      py      :     1.423272
      dz2     :     0.003378  d :     0.025581
      dxz     :     0.001189
      dyz     :     0.007236
      dx2y2   :     0.006134
      dxy     :     0.007644

  3 N s       :     3.599202  s :     3.599202
      pz      :     1.520419  p :     3.902737
      px      :     1.182761
      py      :     1.199556
      dz2     :     0.003271  d :     0.036410
      dxz     :     0.006963
      dyz     :     0.006102
      dx2y2   :     0.009556
      dxy     :     0.010518

  4 N s       :     3.614167  s :     3.614167
      pz      :     1.404350  p :     3.995966
      px      :     1.102715
      py      :     1.488901
      dz2     :     0.003172  d :     0.028442
      dxz     :     0.010494
      dyz     :     0.003594
      dx2y2   :     0.005123
      dxy     :     0.006059

  5 C s       :     3.135017  s :     3.135017
      pz      :     1.031277  p :     2.832544
      px      :     0.902363
      py      :     0.898904
      dz2     :     0.004426  d :     0.042079
      dxz     :     0.006436
      dyz     :     0.007455
      dx2y2   :     0.011635
      dxy     :     0.012127

  6 C s       :     3.227782  s :     3.227782
      pz      :     0.974762  p :     2.976658
      px      :     0.959823
      py      :     1.042074
      dz2     :     0.003954  d :     0.038918
      dxz     :     0.009896
      dyz     :     0.010875
      dx2y2   :     0.007035
      dxy     :     0.007157

  7 C s       :     3.134724  s :     3.134724
      pz      :     1.001559  p :     2.741442
      px      :     0.893544
      py      :     0.846340
      dz2     :     0.004581  d :     0.043548
      dxz     :     0.006870
      dyz     :     0.007969
      dx2y2   :     0.010144
      dxy     :     0.013984

  8 C s       :     3.183020  s :     3.183020
      pz      :     0.962056  p :     2.747859
      px      :     0.846085
      py      :     0.939718
      dz2     :     0.006393  d :     0.056527
      dxz     :     0.012422
      dyz     :     0.014984
      dx2y2   :     0.011995
      dxy     :     0.010734

  9 C s       :     3.066315  s :     3.066315
      pz      :     1.007893  p :     2.661334
      px      :     0.865316
      py      :     0.788125
      dz2     :     0.006111  d :     0.058718
      dxz     :     0.008301
      dyz     :     0.010918
      dx2y2   :     0.016113
      dxy     :     0.017275

 10 C s       :     3.124494  s :     3.124494
      pz      :     0.997715  p :     2.799201
      px      :     0.795784
      py      :     1.005702
      dz2     :     0.007362  d :     0.051504
      dxz     :     0.009692
      dyz     :     0.005315
      dx2y2   :     0.016536
      dxy     :     0.012600

 11 C s       :     3.212976  s :     3.212976
      pz      :     1.047699  p :     3.010361
      px      :     0.939614
      py      :     1.023047
      dz2     :     0.002828  d :     0.033268
      dxz     :     0.005164
      dyz     :     0.005931
      dx2y2   :     0.009105
      dxy     :     0.010239

 12 C s       :     3.170570  s :     3.170570
      pz      :     1.011682  p :     2.909887
      px      :     0.962960
      py      :     0.935246
      dz2     :     0.002828  d :     0.034698
      dxz     :     0.005301
      dyz     :     0.006194
      dx2y2   :     0.009634
      dxy     :     0.010740

 13 C s       :     3.087684  s :     3.087684
      pz      :     0.994893  p :     2.476995
      px      :     0.894907
      py      :     0.587196
      dz2     :     0.007451  d :     0.074630
      dxz     :     0.008174
      dyz     :     0.014458
      dx2y2   :     0.023368
      dxy     :     0.021179

 14 C s       :     2.997597  s :     2.997597
      pz      :     0.718266  p :     2.311266
      px      :     0.737596
      py      :     0.855405
[...]
12 C  dx2y2           0.0       1.0       0.0
12 C  dxy             0.3       0.9      10.5
13 C  py              0.0       0.0       0.1
13 C  dz2             0.0       0.0       0.2
13 C  dxz             0.0       0.0       0.6
13 C  dyz             0.0       0.0       0.1
13 C  dx2y2           0.0       0.5       5.1
13 C  dxy             0.0       0.0       0.8
14 C  dz2             0.6       0.0       0.0
14 C  dyz             0.3       0.0       0.0
14 C  dx2y2           0.6       0.0       0.0
14 C  dxy             0.2       0.0       0.0
15 C  s               0.0       0.1       0.3
15 C  px              0.0       0.2       0.9
15 C  py              0.0       0.1       0.2
15 C  dz2             0.1       0.1       0.6
15 C  dxz             0.0       0.2       0.4
15 C  dyz             0.0       0.1       1.2
15 C  dx2y2           0.1       1.0       5.3
15 C  dxy             0.2       0.5       6.3
16 H  s               2.7       0.0       0.0
16 H  pz              2.1       0.0       0.0
16 H  px              1.3       0.1       0.0
16 H  py              6.0       0.0       0.0
17 H  s               4.0       0.1       0.0
17 H  pz              9.1       0.1       0.0
17 H  px              0.4       0.1       0.0
17 H  py              5.4       0.1       0.0
18 H  s               3.1       0.0       0.0
18 H  pz              7.3       0.0       0.0
18 H  px              0.4       0.0       0.0
18 H  py              4.9       0.0       0.0
19 H  s               0.0       4.6       0.3
19 H  px              0.1       3.4       0.1
19 H  py              0.0      10.3       1.0
20 H  s               0.0       5.8       1.2
20 H  pz              0.0       1.3       0.2
20 H  px              0.0       2.6       0.2
20 H  py              0.1       7.3       1.7
21 H  s               0.2       0.1       1.8
21 H  pz              0.1       0.0       0.7
21 H  px              0.6       0.1       2.4
21 H  py              0.3       0.2       2.0
22 H  s               0.2       0.4       2.6
22 H  pz              0.1       0.1       1.1
22 H  px              0.3       0.2       4.1
22 H  py              0.2       0.7       2.1
23 H  px              0.2       0.0       0.0
24 H  px              0.1       0.0       0.0
24 H  py              0.2       0.0       0.0
25 H  s               0.1       0.4       2.6
25 H  pz              0.0       0.0       0.3
25 H  px              0.5       1.0       5.8
25 H  py              0.0       0.3       1.0
26 H  s               1.9       0.0       0.0
26 H  pz              0.4       0.0       0.0
26 H  px              0.8       0.0       0.0
26 H  py              2.7       0.0       0.0


                      *****************************
                      * MAYER POPULATION ANALYSIS *
                      *****************************

  NA   - Mulliken gross atomic population
  ZA   - Total nuclear charge
  QA   - Mulliken gross atomic charge
  VA   - Mayer's total valence
  BVA  - Mayer's bonded valence
  FA   - Mayer's free valence

  ATOM       NA         ZA         QA         VA         BVA        FA
  0 F      9.3499     9.0000    -0.3499     0.9981     0.9981     0.0000
  1 O      8.4919     8.0000    -0.4919     2.0358     2.0358     0.0000
  2 O      8.5167     8.0000    -0.5167     2.0106     2.0106    -0.0000
  3 N      7.5390     7.0000    -0.5390     3.1986     3.1986     0.0000
  4 N      7.6312     7.0000    -0.6312     2.8213     2.8213     0.0000
  5 C      5.9950     6.0000     0.0050     3.9362     3.9362    -0.0000
  6 C      6.2429     6.0000    -0.2429     3.8634     3.8634     0.0000
  7 C      5.9605     6.0000     0.0395     4.0282     4.0282     0.0000
  8 C      5.9917     6.0000     0.0083     3.8306     3.8306     0.0000
  9 C      5.7765     6.0000     0.2235     3.8256     3.8256     0.0000
 10 C      5.9797     6.0000     0.0203     3.7652     3.7652     0.0000
 11 C      6.2343     6.0000    -0.2343     3.8270     3.8270     0.0000
 12 C      6.1188     6.0000    -0.1188     3.8572     3.8572     0.0000
 13 C      5.6449     6.0000     0.3551     3.7783     3.7783     0.0000
 14 C      5.4311     6.0000     0.5689     3.9270     3.9270     0.0000
 15 C      6.1955     6.0000    -0.1955     3.8899     3.8899     0.0000
 16 H      0.8699     1.0000     0.1301     0.9514     0.9514     0.0000
 17 H      0.8777     1.0000     0.1223     0.9550     0.9550     0.0000
 18 H      0.8839     1.0000     0.1161     0.9510     0.9510    -0.0000
 19 H      0.8551     1.0000     0.1449     0.9522     0.9522     0.0000
 20 H      0.6885     1.0000     0.3115     0.8959     0.8959     0.0000
 21 H      0.8814     1.0000     0.1186     0.9700     0.9700    -0.0000
 22 H      0.8733     1.0000     0.1267     0.9528     0.9528     0.0000
 23 H      0.7306     1.0000     0.2694     0.9062     0.9062    -0.0000
 24 H      0.7283     1.0000     0.2717     0.9076     0.9076    -0.0000
 25 H      0.8794     1.0000     0.1206     0.9573     0.9573     0.0000
 26 H      0.6321     1.0000     0.3679     0.8797     0.8797     0.0000

  Mayer bond orders larger than 0.100000
B(  0-F , 13-C ) :   0.8618 B(  1-O , 14-C ) :   1.1137 B(  1-O , 26-H ) :   0.8259 
B(  2-O , 14-C ) :   1.8497 B(  3-N ,  9-C ) :   1.0400 B(  3-N , 10-C ) :   1.1140 
B(  3-N , 20-H ) :   0.8728 B(  4-N ,  8-C ) :   0.9970 B(  4-N , 23-H ) :   0.8985 
B(  4-N , 24-H ) :   0.8946 B(  5-C ,  6-C ) :   1.0012 B(  5-C ,  7-C ) :   1.2690 
B(  5-C , 10-C ) :   1.5403 B(  6-C ,  8-C ) :   0.9597 B(  6-C , 16-H ) :   0.9370 
B(  6-C , 17-H ) :   0.9332 B(  7-C ,  9-C ) :   1.2778 B(  7-C , 11-C ) :   1.2980 
B(  8-C , 14-C ) :   0.9261 B(  8-C , 18-H ) :   0.9311 B(  9-C , 12-C ) :   1.3582 
B( 10-C , 19-H ) :   0.9377 B( 11-C , 13-C ) :   1.4336 B( 11-C , 21-H ) :   0.9201 
B( 12-C , 15-C ) :   1.4446 B( 12-C , 22-H ) :   0.9319 B( 13-C , 15-C ) :   1.3369 
B( 15-C , 25-H ) :   0.9328 

-------
TIMINGS
-------

Total SCF time: 0 days 0 hours 1 min 4 sec 

Total time                  ....      64.827 sec
Sum of individual times     ....      59.838 sec  ( 92.3%)

SCF preparation             ....       0.821 sec  (  1.3%)
Fock matrix formation       ....      58.262 sec  ( 89.9%)
  Startup                   ....       0.008 sec  (  0.0% of F)
  Split-RI-J                ....       4.272 sec  (  7.3% of F)
  Chain of spheres X        ....      48.921 sec  ( 84.0% of F)
  XC integration            ....       5.112 sec  (  8.8% of F)
    XC Preparation          ....       0.000 sec  (  0.0% of XC)
    Basis function eval.    ....       1.805 sec  ( 35.3% of XC)
    Density eval.           ....       1.434 sec  ( 28.0% of XC)
    XC-Functional eval.     ....       0.232 sec  (  4.5% of XC)
    XC-Potential eval.      ....       1.382 sec  ( 27.0% of XC)
  CPCM terms                ....       4.807 sec  (  8.3% of F)
Diagonalization             ....       0.000 sec  (  0.0%)
Density matrix formation    ....       0.025 sec  (  0.0%)
Total Energy calculation    ....       0.013 sec  (  0.0%)
Population analysis         ....       0.448 sec  (  0.7%)
Orbital Transformation      ....       0.056 sec  (  0.1%)
Orbital Orthonormalization  ....       0.000 sec  (  0.0%)
DIIS solution               ....       0.140 sec  (  0.2%)
  MO trafo                  ....       0.000 sec  (  0.0 % of DIIS)
  Orb grad                  ....       0.000 sec  (  0.0 % of DIIS)
  Energy W gradient         ....       0.000 sec  (  0.0 % of DIIS)
  DIIS error                ....       0.030 sec  ( 21.3 % of DIIS)
  DIIS work                 ....       0.079 sec  ( 56.2 % of DIIS)
  Form Q                    ....       0.000 sec  (  0.0 % of DIIS)
  Form QpQm                 ....       0.000 sec  (  0.0 % of DIIS)
  Exp/Cayley                ....       0.000 sec  (  0.0 % of DIIS)
  Orb update                ....       0.000 sec  (  0.0 % of DIIS)
  Wake-sleep                ....       0.004 sec  (  2.7 % of DIIS)
SOSCF solution              ....       0.072 sec  (  0.1%)
  MO trafo                  ....       0.041 sec  ( 56.6 % of SOSCF)
  Orb grad                  ....       0.002 sec  (  2.3 % of SOSCF)
  Rot update                ....       0.003 sec  (  3.6 % of SOSCF)
  Step                      ....       0.024 sec  ( 33.2 % of SOSCF)
Finished LeanSCF after  65.0 sec

Maximum memory used throughout the entire LEANSCF-calculation: 49.5 MB


-------------------------------------------------------------------------------
                          DFT DISPERSION CORRECTION                            
                                                                               
                              DFTD3 V3.1  Rev 1                                
                          USING Becke-Johnson damping                          
-------------------------------------------------------------------------------
The B3LYP functional is recognized
Active option DFTDOPT                   ...         4   

molecular C6(AA) [au] = 8011.380999 


            DFT-D V3
 parameters
 s6 scaling factor         :     1.0000 
 a1 scaling factor         :     0.3981 
 s8 scaling factor         :     1.9889 
 a2 scaling factor         :     4.4211 
 ad hoc parameters k1-k3   :    16.0000     1.3333    -4.0000 

 Edisp/kcal,au: -34.889648597901  -0.055600188233 
 E6   /kcal   : -16.467241920 
 E8   /kcal   : -18.422406678 
 % E8         :  52.801926697 

-------------------------   ----------------
Dispersion correction           -0.055600188
-------------------------   ----------------


-------------------------   --------------------
FINAL SINGLE POINT ENERGY      -785.246415720294
-------------------------   --------------------

                                *** OPTIMIZATION RUN DONE ***



           ************************************************************
           *        Program running with 2 parallel MPI-processes     *
           *              working on a common directory               *
           ************************************************************

------------------------------------------------------------------------------
                              ORCA PROPERTY CALCULATIONS
------------------------------------------------------------------------------

GBWName                                 ... /kaggle/working/Trp-F-1/Trp-F_InterFrag.gbw
Number of atoms                         ...     27
Number of basis functions               ...    279
Max core memory                         ...   3000 MB

Electric properties:
Dipole moment                           ... YES
Quadrupole moment                       ...  NO
Static polarizability (Dipole/Dipole)   ...  NO
Static polarizability (Dipole/Quad.)    ...  NO
Static polarizability (Quad./Quad.)     ...  NO
Static polarizability (Velocity)        ...  NO
Static hyperpolarizability              ...  NO

Atomic electric properties:
Dipole moment                           ...  NO
Quadrupole moment                       ...  NO
Static polarizability                   ...  NO

Choice of electric origin               ... Center of mass
Position of electric origin             ...     0.100449     0.162123    -0.027139

General magnetic properties:
Magnetizability                         ...  NO

EPR properties:
g-Tensor (aka g-matrix)                 ...  NO
Zero-Field splitting spin-orbit         ...  NO
Zero-field splitting spin-spin          ...  NO
Hyperfine couplings                     ...  NO (   0 nuclei)
Quadrupole couplings                    ...  NO (   0 nuclei)
Contact density                         ...  NO (   0 nuclei)

NMR properties:
Chemical shifts                         ...  NO (   0 nuclei)
Spin-rotation constants                 ...  NO (   0 nuclei)
Spin-spin couplings                     ...  NO (   0 nuclei,    0 pairs)

Choice of magnetic origin               ... GIAO
Position of magnetic origin             ...     0.000000     0.000000     0.000000

Properties with geometric perturbations:
SCF Hessian                             ...  NO
IR spectrum                             ...  NO
VCD spectrum                            ...  NO
X-ray spectroscopy properties:
SCF XES/XAS/RIXS spectra                ...  NO

SCF SOC stabilization energy            ...  NO
Diagonal Born-Oppenheimer correction    ...  NO

-------------
DIPOLE MOMENT
-------------

Method             : SCF
Type of density    : Electron Density
Multiplicity       :   1
Irrep              :   0
Energy             :  -785.1908155320605829 Eh
Basis              : AO
                                X                 Y                 Z
Electronic contribution:     -9.541587260       6.630856970      -1.264795500
Nuclear contribution   :      9.609723111      -9.829619670      -0.031312963
                        -----------------------------------------
Total Dipole Moment    :      0.068135850      -3.198762700      -1.296108464
                        -----------------------------------------
Magnitude (a.u.)       :      3.452046126
Magnitude (Debye)      :      8.774403939



--------------------
Rotational spectrum 
--------------------
 
Rotational constants in cm-1:             0.026642             0.013650             0.010189 
Rotational constants in MHz :           798.715861           409.227668           305.466339 

Dipole components along the rotational axes: 
x,y,z [a.u.] :    -0.135430    -3.186363    -1.321126 
x,y,z [Debye]:    -0.344236    -8.099091    -3.358035 

 

Dipole moment calculation done in   0.0 sec 

Maximum memory used throughout the entire PROP-calculation: 17.4 MB

--------------------------------
SUGGESTED CITATIONS FOR THIS RUN
--------------------------------

Below you find a list of papers that are relevant to this ORCA run
We neither can nor want to force you to cite these papers, but we appreciate if you do
You receive ORCA, which is the product of decades of hard work by many enthusiastic individuals, for free
The only thing we kindly ask in return is that you cite our papers,
We deeply appreciate it, if you show your appreciation for ORCA by not just citing the generic ORCA reference.

Please note that relegating all ORCA citations to the supporting information does *not* help us.
SI sections are not indexed - citations you put there will not count into any citation statistics
But we need these citations in order to attract the funding resources that allow us to do what we are doing

Therefore, if you are a happy ORCA user, please consider citing a few of the papers listed below in the main body of your paper

In addition to the list printed below, the program has created the file /kaggle/working/Trp-F-1/Trp-F_InterFrag.bibtex that contains the list in bibtex format
You can import this file easily into all common literature databanks and citation aid programs

It goes without saying that in many instances, there are alternative algorithms to achieve similar
results as the ones you have gotten from ORCA. It is, of course, also the case that in some instances
ORCA just re-implements algorithms worked out by others. We are fully aware of that and we are also
fully appreciative of our colleagues work. Hence this citation list should not be read as indicating
that the listed papers, which are focused on our own work, are the only ones worth citing. It simply
meant to make it easier for users to cite ORCA specific papers. It is not a substitute for doing your
own literature research and citing the relevant literature in a scientifically appropriate manner.

List of essential papers. We consider these as the minimum necessary citations

  1. Neese, F.
     Software update: the ORCA program system, version 6.0
     WIRES Comput. Molec. Sci. 2025 15(1), e70019
     doi.org/10.1002/wcms.70019

List of papers to cite with high priority. The work reported in these papers was absolutely
necessary for this run to complete.
Our perspective: the developers of density functionals and basis sets usually get cited in chemistry papers
Good! But without the algorithms to do something with them, the functionals or basis sets would not do anything.
Hence, in our opinion, the algorithm design and method developments papers are equally worthy of getting cited

  1. Neese, F.
     An improvement of the resolution of the identity approximation for the formation of the Coulomb matrix
     J. Comp. Chem. 2003 24(14), 1740-1747
     doi.org/10.1002/jcc.10318
  2. Neese, F.; Wennmohs, F.; Hansen, A.; Becker, U.
     Efficient, approximate and parallel Hartree-Fock and hybrid DFT calculations. A 'chain-of-spheres' algorithm for the Hartree-Fock exchange
     Chem. Phys. 2009 356(1-3), 98-109
     doi.org/10.1016/j.chemphys.2008.10.036
  3. Grimme, S.; Antony, J.; Ehrlich, S.; Krieg, H.
     A consistent and accurate ab initio parametrization of density functional dispersion correction (DFT-D) for the 94 elements H-Pu
     J. Chem. Phys. 2010 132 , 154104
     doi.org/10.1063/1.3382344
  4. Grimme, S.; Ehrlich, S.; Goerigk, L.
     Effect of the damping function in dispersion corrected density functional theory
     J. Comput. Chem. 2011 32(7), 1456-1465
     doi.org/10.1002/jcc.21759
  5. Garcia-Rates, M.; Neese, F.
     Effect of the Solute Cavity on the Solvation Energy and its Derivatives within the Framework of the Gaussian Charge Scheme
     J. Comput. Chem. 2020 41 , 922-939
     doi.org/10.1002/jcc.26139
  6. Helmich-Paris, B.; de Souza, B.; Neese, F.; Izsák, R.
     An improved chain of spheres for exchange algorithm
     J. Chem. Phys. 2021 155(10), 104109
     doi.org/10.1063/5.0058766
  7. Neese, F.
     The SHARK Integral Generation and Digestion System
     J. Comp. Chem. 2022 44(3), 381
     doi.org/10.1002/jcc.26942

List of suggested additional citations. These are papers that are important in the 'surrounding' of 
of this run, or papers that preceded the highly important papers. If you like your results we are grateful for a citation.

  1. Izsak, R.; Neese, F.
     An overlap fitted chain of spheres exchange method
     J. Chem. Phys. 2011 135 , 144105
     doi.org/10.1063/1.3646921
  2. Izsak, R.; Hansen, A.; Neese, F.
     The resolution of identity and chain of spheres approximations for the LPNO-CCSD singles Fock term
     Molec. Phys. 2012 110 , 2413-2417
     doi.org/10.1080/00268976.2012.687466
  3. Neese, F.
     The ORCA program system
     WIRES Comput. Molec. Sci. 2012 2(1), 73-78
     doi.org/10.1002/wcms.81
  4. Izsak, R.; Neese, F.; Klopper, W.
     Robust fitting techniques in the chain of spheres approximation to the Fock exchange: The role of the complementary space
     J. Chem. Phys. 2013 139 , 
     doi.org/10.1063/1.4819264
  5. Neese, F.
     Software update: the ORCA program system, version 4.0
     WIRES Comput. Molec. Sci. 2018 8(1), 1-6
     doi.org/10.1002/wcms.1327
  6. Neese, F.; Wennmohs, F.; Becker, U.; Riplinger, C.
     The ORCA quantum chemistry program package
     J. Chem. Phys. 2020 152(22), 224108
     doi.org/10.1063/5.0004608
  7. Neese, F.
     Software update: The ORCA program system—Version 5.0
     WIRES Comput. Molec. Sci. 2022 12(1), e1606
     doi.org/10.1002/wcms.1606

List of optional additional citations

  1. Neese, F.
     Approximate second-order SCF convergence for spin unrestricted wavefunctions
     Chem. Phys. Lett. 2000 325(1-3), 93-98
     doi.org/10.1016/s0009-2614(00)00662-x

Timings for individual modules:

Sum of individual times          ...     1159.239 sec (=  19.321 min)
Startup calculation              ...       35.733 sec (=   0.596 min)   3.1 %
SCF iterations                   ...      727.182 sec (=  12.120 min)  62.7 %
Property calculations            ...        0.483 sec (=   0.008 min)   0.0 %
SCF Gradient evaluation          ...      395.758 sec (=   6.596 min)  34.1 %
Geometry relaxation              ...        0.083 sec (=   0.001 min)   0.0 %
                             ****ORCA TERMINATED NORMALLY****
TOTAL RUN TIME: 0 days 0 hours 19 minutes 23 seconds 376 msec
