[Molden Format]
[Title]
 Molden file created by orca_2mkl for BaseName=/kaggle/working/Thr-2/Thr_InterFrag

[Atoms] AU
O    1   8         -3.4429714119        -2.0982328464         0.8978920342 
O    2   8          1.9639791429        -3.0309222976         0.1006770495 
O    3   8          3.6499134311         0.5163071949        -1.5414703944 
N    4   7          0.6481836228         3.5734947960         1.3634657515 
C    5   6         -2.5798125441         0.3946447366         0.3520125150 
C    6   6          0.1313265177         0.8613711869         1.3943684430 
C    7   6         -2.7879942236         0.7739864710        -2.4888543561 
C    8   6          2.1000261965        -0.5033795784        -0.1722863316 
H    9   1          0.1926330129         0.0123795959         3.2939268220 
H   10   1         -3.7816802550         1.7881987077         1.3193425360 
H   11   1         -2.0315595289         2.6188618449        -3.0213810703 
H   12   1         -4.7656833296         0.6728332105        -3.0802687161 
H   13   1         -1.7380415966        -0.6955533878        -3.5009576583 
H   14   1          2.4743450388         3.8644634877         1.8902684853 
H   15   1         -0.4431124325         4.3908769379         2.7197240876 
H   16   1         -3.4031076391        -2.3131513996         2.7151698476 
H   17   1          3.2426188677        -3.7801420179        -0.9938409889 
[GTO]
  1 0
s   6 1.0 
     5484.6717000000         0.8317352088
      825.2349500000         1.5308074829
      188.0469600000         2.4771490916
       52.9645000000         3.2562802462
       16.8975700000         2.7928936336
        5.7996353000         0.9549376963
s   3 1.0 
       15.5396160000        -0.6179336976
        3.5999336000        -0.2757210088
        1.0137618000         0.8142076427
p   3 1.0 
       15.5396160000         3.1169455889
        3.5999336000         2.4014372483
        1.0137618000         1.0543605133
s   1 1.0 
        0.2700058000         0.2669561389
p   1 1.0 
        0.2700058000         0.2774319373
d   1 1.0 
        0.8000000000         1.9292013661

  2 0
s   6 1.0 
     5484.6717000000         0.8317352088
      825.2349500000         1.5308074829
      188.0469600000         2.4771490916
       52.9645000000         3.2562802462
       16.8975700000         2.7928936336
        5.7996353000         0.9549376963
s   3 1.0 
       15.5396160000        -0.6179336976
        3.5999336000        -0.2757210088
        1.0137618000         0.8142076427
p   3 1.0 
       15.5396160000         3.1169455889
        3.5999336000         2.4014372483
        1.0137618000         1.0543605133
s   1 1.0 
        0.2700058000         0.2669561389
p   1 1.0 
        0.2700058000         0.2774319373
d   1 1.0 
        0.8000000000         1.9292013661

  3 0
s   6 1.0 
     5484.6717000000         0.8317352088
      825.2349500000         1.5308074829
      188.0469600000         2.4771490916
       52.9645000000         3.2562802462
       16.8975700000         2.7928936336
        5.7996353000         0.9549376963
s   3 1.0 
       15.5396160000        -0.6179336976
        3.5999336000        -0.2757210088
        1.0137618000         0.8142076427
p   3 1.0 
       15.5396160000         3.1169455889
        3.5999336000         2.4014372483
        1.0137618000         1.0543605133
s   1 1.0 
        0.2700058000         0.2669561389
p   1 1.0 
        0.2700058000         0.2774319373
d   1 1.0 
        0.8000000000         1.9292013661

  4 0
s   6 1.0 
     4173.5110000000         0.6790079572
      627.4579000000         1.2504643275
      142.9021000000         2.0203691378
       40.2343300000         2.6442129843
       12.8202100000         2.2650039968
        4.3904370000         0.7791872309
s   3 1.0 
       11.6263580000        -0.5158738103
        2.7162800000        -0.2550239186
        0.7722180000         0.6727344163
p   3 1.0 
       11.6263580000         2.0680595460
        2.7162800000         1.6100106206
        0.7722180000         0.7644899877
s   1 1.0 
        0.2120313000         0.2226947990
p   1 1.0 
        0.2120313000         0.2050879094
d   1 1.0 
        0.8000000000         1.9292013661

  5 0
s   6 1.0 
     3047.5249000000         0.5363343823
      457.3695100000         0.9894506076
      103.9486900000         1.5972822308
       29.2101550000         2.0791870615
        9.2866630000         1.7741742532
        3.1639270000         0.6125798260
s   3 1.0 
        7.8682724000        -0.3995563516
        1.8812885000        -0.1841552393
        0.5442493000         0.5163903794
p   3 1.0 
        7.8682724000         1.2960827175
        1.8812885000         0.9937536282
        0.5442493000         0.4959527138
s   1 1.0 
        0.1687144000         0.1876178721
p   1 1.0 
        0.1687144000         0.1541275509
d   1 1.0 
        0.8000000000         1.9292013661

  6 0
s   6 1.0 
     3047.5249000000         0.5363343823
      457.3695100000         0.9894506076
      103.9486900000         1.5972822308
       29.2101550000         2.0791870615
        9.2866630000         1.7741742532
        3.1639270000         0.6125798260
s   3 1.0 
        7.8682724000        -0.3995563516
        1.8812885000        -0.1841552393
        0.5442493000         0.5163903794
p   3 1.0 
        7.8682724000         1.2960827175
        1.8812885000         0.9937536282
        0.5442493000         0.4959527138
s   1 1.0 
        0.1687144000         0.1876178721
p   1 1.0 
        0.1687144000         0.1541275509
d   1 1.0 
        0.8000000000         1.9292013661

  7 0
s   6 1.0 
     3047.5249000000         0.5363343823
      457.3695100000         0.9894506076
      103.9486900000         1.5972822308
       29.2101550000         2.0791870615
        9.2866630000         1.7741742532
        3.1639270000         0.6125798260
s   3 1.0 
        7.8682724000        -0.3995563516
        1.8812885000        -0.1841552393
        0.5442493000         0.5163903794
p   3 1.0 
        7.8682724000         1.2960827175
        1.8812885000         0.9937536282
        0.5442493000         0.4959527138
s   1 1.0 
        0.1687144000         0.1876178721
p   1 1.0 
        0.1687144000         0.1541275509
d   1 1.0 
        0.8000000000         1.9292013661

  8 0
s   6 1.0 
     3047.5249000000         0.5363343823
      457.3695100000         0.9894506076
      103.9486900000         1.5972822308
       29.2101550000         2.0791870615
        9.2866630000         1.7741742532
        3.1639270000         0.6125798260
s   3 1.0 
        7.8682724000        -0.3995563516
        1.8812885000        -0.1841552393
        0.5442493000         0.5163903794
p   3 1.0 
        7.8682724000         1.2960827175
        1.8812885000         0.9937536282
        0.5442493000         0.4959527138
s   1 1.0 
        0.1687144000         0.1876178721
p   1 1.0 
        0.1687144000         0.1541275509
d   1 1.0 
        0.8000000000         1.9292013661

  9 0
s   3 1.0 
       18.7311370000         0.2149354183
        2.8253937000         0.3645711272
        0.6401217000         0.4150514277
s   1 1.0 
        0.1612778000         0.1813806839
p   1 1.0 
        1.1000000000         1.6057611426

 10 0
s   3 1.0 
       18.7311370000         0.2149354183
        2.8253937000         0.3645711272
        0.6401217000         0.4150514277
s   1 1.0 
        0.1612778000         0.1813806839
p   1 1.0 
        1.1000000000         1.6057611426

 11 0
s   3 1.0 
       18.7311370000         0.2149354183
        2.8253937000         0.3645711272
        0.6401217000         0.4150514277
s   1 1.0 
        0.1612778000         0.1813806839
p   1 1.0 
        1.1000000000         1.6057611426

 12 0
s   3 1.0 
       18.7311370000         0.2149354183
        2.8253937000         0.3645711272
        0.6401217000         0.4150514277
s   1 1.0 
        0.1612778000         0.1813806839
p   1 1.0 
        1.1000000000         1.6057611426

 13 0
s   3 1.0 
       18.7311370000         0.2149354183
        2.8253937000         0.3645711272
        0.6401217000         0.4150514277
s   1 1.0 
        0.1612778000         0.1813806839
p   1 1.0 
        1.1000000000         1.6057611426

 14 0
s   3 1.0 
       18.7311370000         0.2149354183
        2.8253937000         0.3645711272
        0.6401217000         0.4150514277
s   1 1.0 
        0.1612778000         0.1813806839
p   1 1.0 
        1.1000000000         1.6057611426

 15 0
s   3 1.0 
       18.7311370000         0.2149354183
        2.8253937000         0.3645711272
        0.6401217000         0.4150514277
s   1 1.0 
        0.1612778000         0.1813806839
p   1 1.0 
        1.1000000000         1.6057611426

 16 0
s   3 1.0 
       18.7311370000         0.2149354183
        2.8253937000         0.3645711272
        0.6401217000         0.4150514277
s   1 1.0 
        0.1612778000         0.1813806839
p   1 1.0 
        1.1000000000         1.6057611426

 17 0
s   3 1.0 
       18.7311370000         0.2149354183
        2.8253937000         0.3645711272
        0.6401217000         0.4150514277
s   1 1.0 
        0.1612778000         0.1813806839
p   1 1.0 
        1.1000000000         1.6057611426

[5D]
[7F]
[9G]
[MO]
 Sym=     1a
 Ene= -1.91885838358902E+01
 Spin= Alpha
 Occup= 2.000000
  1      -0.000046755953
  2      -0.000054574587
  3      -0.000063121495
  4       0.000025470642
  5       0.000030625129
  6       0.000334758120
  7       0.000384945524
  8       0.000114824696
  9      -0.000308641199
 10       0.000018793139
 11      -0.000014174401
 12      -0.000064996133
 13       0.000002306724
 14       0.000089089050
 15       0.995107245207
 16       0.030368157097
 17       0.001293599804
 18       0.001066315080
 19      -0.001183844709
 20      -0.021920528036
 21      -0.000726178045
 22      -0.007076659380
 23       0.001064208937
 24       0.000356188650
 25      -0.000439585858
 26       0.000523767537
 27       0.000799235804
 28      -0.000491754459
 29      -0.000567275785
 30      -0.000578739844
 31       0.000103376228
 32      -0.000068100685
 33      -0.000107955317
 34       0.002642318751
 35      -0.001201152363
 36       0.001877340937
 37       0.001021700217
 38       0.000117214380
 39      -0.000326262497
 40       0.000234956621
 41       0.000299816195
 42      -0.000274983788
 43      -0.000026211126
 44      -0.000402197769
 45      -0.000079465876
 46       0.000224632750
 47       0.000121636201
 48      -0.000470362172
 49       0.001004690697
 50      -0.000714395179
 51      -0.000550678509
 52      -0.000129008455
 53      -0.000020912719
 54      -0.000021249754
 55      -0.000046201282
 56      -0.000073995371
 57       0.000100691182
 58       0.000782283416
 59       0.000036603213
 60       0.000013823149
 61      -0.000180693941
 62      -0.003462511462
 63      -0.001636481758
 64       0.000197831778
 65       0.001534450520
 66       0.000083086154
 67      -0.000000053090
 68      -0.000004934417
 69      -0.000046610005
 70      -0.000016870309
 71      -0.000079502384
 72      -0.001054664754
 73      -0.000167397025
 74       0.000078312091
 75       0.000259468296
 76       0.003429465916
 77       0.000140836655
 78       0.001487196490
 79      -0.002548819830
 80       0.000085352545
 81      -0.000055088192
 82      -0.000149608060
 83       0.000223608849
 84       0.000221630642
 85      -0.000023134436
 86      -0.000045050783
 87       0.000086165430
 88      -0.000065735818
 89       0.000190340497
 90       0.002102555812
 91       0.000077358946
 92      -0.000270253369
 93       0.000375655333
 94      -0.000007363423
 95       0.000039502805
 96      -0.000012662584
 97       0.000009916428
 98      -0.000014653634
 99       0.000029863591
100      -0.000026048423
101       0.000123427483
102      -0.000717552777
103       0.000095909246
104       0.007574720214
105      -0.000869884291
106      -0.011890261266
107       0.001260029079
108      -0.000026775827
109      -0.000208129026
110       0.000254672096
111      -0.000000028500
112      -0.000268568261
113       0.000051509920
114       0.000442845616
115      -0.000114877751
116       0.000090773215
117       0.000109938995
118       0.000006802529
119      -0.000477949056
120       0.000018738651
121       0.000066794495
122      -0.000059529534
123      -0.000121853166
124       0.000122031245
125       0.000020004772
126      -0.000017324644
127       0.000020545735
128      -0.000096955875
129      -0.000240797096
130      -0.000033805078
131      -0.000003064813
132      -0.000018015786
133       0.000018888253
134      -0.000705572221
135      -0.000026358127
136      -0.000019833055
137      -0.000057222487
138      -0.000239377523
139       0.000220854676
140      -0.000005917655
141      -0.000019912495
142       0.000014944255
143       0.000192230679
144       0.000649051999
145       0.000030648756
146       0.000025357304
147      -0.000065380342
148       0.000002284002
149       0.000109198660
150      -0.000018566343
151       0.000005625023
152      -0.000002789498
153      -0.000444535314
154       0.000332902559
155       0.001288809855
156      -0.000452084874
157      -0.001112045798
 Sym=     1a
 Ene= -1.91375747388666E+01
 Spin= Alpha
 Occup= 2.000000
  1       0.995090838623
  2       0.029780071620
  3       0.000598083113
  4       0.001347900589
  5       0.001556372543
  6      -0.018637243420
  7      -0.002290004816
  8      -0.005863976673
  9       0.000605116877
 10       0.001127599521
 11       0.000108140909
 12       0.000015559986
 13       0.000566732611
 14      -0.000527321244
 15       0.000043163375
 16      -0.000032167144
 17       0.000046220302
 18       0.000028923757
 19      -0.000024047979
 20       0.000398941223
 21      -0.000306038400
 22       0.000251591913
 23       0.000147067277
 24       0.000020357399
 25       0.000066031550
 26      -0.000001755177
 27      -0.000078854560
 28      -0.000026578968
 29      -0.000108820515
 30      -0.000032692443
 31       0.000051552501
 32      -0.000019053670
 33       0.000033468391
 34       0.000039398262
 35      -0.000401932435
 36       0.000094704541
 37       0.000017208775
 38      -0.000009052696
 39      -0.000050558463
 40      -0.000009504600
 41       0.000070925385
 42       0.000023648871
 43      -0.000042804193
 44      -0.000495077038
 45       0.000160450356
 46       0.000072336820
 47       0.000072216801
 48       0.001473245878
 49      -0.001465103107
 50      -0.001070446684
 51      -0.000208409334
 52      -0.000069597337
 53      -0.000082915569
 54       0.000020577090
 55      -0.000103175704
 56       0.000106079295
 57      -0.000191410570
 58      -0.001326650678
 59      -0.000413261178
 60      -0.000569741221
 61       0.000356435792
 62       0.012074710636
 63      -0.001016082069
 64      -0.006480700705
 65       0.001374978145
 66      -0.000121235716
 67      -0.000051005645
 68      -0.000190268099
 69      -0.000232244470
 70       0.000198227498
 71       0.000020047845
 72      -0.000213179611
 73       0.000274834711
 74       0.000104591852
 75       0.000085710392
 76      -0.001089096478
 77       0.001964951899
 78      -0.000992981890
 79      -0.000640604336
 80       0.000158117968
 81      -0.000065691092
 82      -0.000090245680
 83       0.000044262866
 84      -0.000285087585
 85      -0.000009263077
 86      -0.000412962404
 87       0.000021049506
 88       0.000197292138
 89      -0.000372881133
 90      -0.000996919117
 91      -0.000117140319
 92       0.000839135616
 93      -0.000105580222
 94      -0.000066030649
 95       0.000030999317
 96       0.000201519044
 97      -0.000045846759
 98       0.000097200962
 99       0.000073228638
100       0.000606039742
101      -0.000151453708
102       0.000030822521
103       0.000025802787
104      -0.002994401926
105       0.001619967296
106      -0.000336063441
107      -0.000710951001
108       0.000081256079
109       0.000114978296
110       0.000004533584
111      -0.000023040024
112      -0.000068595281
113      -0.000016723362
114      -0.000078194123
115       0.000072454196
116       0.000090661666
117       0.000101054203
118      -0.000454987815
119      -0.000416123624
120       0.000158593918
121       0.000419577580
122      -0.000095987146
123      -0.000061529350
124       0.000272750617
125       0.000016177832
126      -0.000040800460
127       0.000099137273
128      -0.000002850236
129      -0.000180546265
130       0.000011570126
131       0.000016114361
132      -0.000125426953
133      -0.000045138835
134       0.000386552417
135      -0.000004298259
136       0.000068123586
137      -0.000113579773
138       0.000175430365
139       0.000502839065
140      -0.000051696283
141       0.000078674202
142      -0.000027244238
143      -0.000283536031
144       0.000253272231
145       0.000059604702
146       0.000005938642
147       0.000042690975
148      -0.000616307610
149       0.000789395301
150       0.000148873273
151       0.000040645829
152       0.001882111362
153       0.000107563366
154       0.000009518208
155      -0.000026423945
156       0.000004049752
157       0.000036972460
 Sym=     1a
 Ene= -1.91300415029076E+01
 Spin= Alpha
 Occup= 2.000000
  1      -0.000111647605
  2      -0.000029133682
  3      -0.000017894568
  4      -0.000014232437
  5      -0.000039906834
  6       0.000034226761
  7       0.000205500895
  8       0.000084925724
  9       0.000066104302
 10       0.000046755140
 11       0.000069429234
 12      -0.000048329422
 13       0.000012313056
 14       0.000087317107
 15      -0.000524339599
 16       0.000545200208
 17      -0.000105565192
 18       0.000199899964
 19       0.000116278655
 20      -0.002927098949
 21       0.001628566282
 22      -0.001205246358
 23      -0.001502124956
 24       0.000066142038
 25       0.000004109202
 26      -0.000372446623
 27       0.000054429614
 28       0.000403127467
 29      -0.995193916373
 30      -0.030723378919
 31       0.001504682251
 32       0.001044695485
 33      -0.001340180168
 34       0.026278127000
 35      -0.005347236331
 36      -0.003462062155
 37       0.004593771464
 38       0.000007637349
 39      -0.000221430799
 40      -0.000171242934
 41       0.000106829596
 42       0.000232449420
 43       0.000020360100
 44       0.000257586867
 45      -0.000028160689
 46       0.000026886278
 47      -0.000016708691
 48      -0.002928046729
 49       0.000560966836
 50       0.001141660522
 51      -0.000121208100
 52       0.000048749846
 53      -0.000095953570
 54       0.000042996913
 55       0.000006649374
 56      -0.000103476649
 57       0.000072560543
 58       0.000567739588
 59       0.000067688524
 60      -0.000053168227
 61      -0.000034609190
 62      -0.002308894603
 63      -0.000735287850
 64      -0.000673652845
 65       0.001918726500
 66      -0.000000877113
 67       0.000115599871
 68      -0.000026569272
 69       0.000026425644
 70      -0.000111985397
 71      -0.000026290733
 72       0.000091936753
 73       0.000046305777
 74      -0.000123433017
 75      -0.000056560282
 76      -0.001025764898
 77       0.000110136753
 78       0.005698664051
 79      -0.001193387439
 80       0.000110193820
 81      -0.000227057642
 82      -0.000092647984
 83       0.000295350499
 84       0.000276918462
 85      -0.000046377234
 86      -0.000440155566
 87      -0.000165994102
 88      -0.000059120410
 89       0.000042928456
 90       0.002191131713
 91       0.001145128247
 92       0.000410267603
 93       0.001314922335
 94       0.000055913611
 95      -0.000001659514
 96      -0.000030574038
 97      -0.000056119543
 98       0.000015271032
 99      -0.000280443703
100      -0.000715066256
101      -0.000105896834
102      -0.000031659734
103      -0.000038242934
104      -0.009175518188
105      -0.009546167143
106      -0.007246916051
107       0.009068292771
108       0.000057075551
109      -0.000389253955
110      -0.000462767815
111       0.000198227928
112       0.000569029205
113       0.000362700043
114       0.000647856311
115      -0.000195601391
116      -0.000117428131
117       0.000017685558
118       0.000058129493
119      -0.000414591162
120      -0.000030137685
121       0.000075574813
122      -0.000090926521
123      -0.000265271559
124      -0.000406581956
125      -0.000051679759
126       0.000037733907
127      -0.000070630976
128       0.000034021850
129       0.000612319669
130       0.000055972912
131      -0.000021315060
132      -0.000010782595
133      -0.000258131117
134       0.000478329413
135      -0.000035891513
136       0.000031535260
137      -0.000010467655
138       0.000105100413
139       0.000166087770
140      -0.000021704491
141      -0.000127936277
142      -0.000065845435
143       0.000096210839
144      -0.000195674607
145      -0.000031201889
146       0.000061765954
147       0.000018827906
148      -0.000148785974
149       0.000074462585
150       0.000027428864
151      -0.000020844758
152       0.000024158483
153      -0.000099646369
154      -0.000176872454
155       0.000010375909
156       0.000155251691
157      -0.000008335935
 Sym=     1a
 Ene= -1.43182688460285E+01
 Spin= Alpha
 Occup= 2.000000
  1      -0.000019490824
  2      -0.000386065379
  3      -0.000079722844
  4      -0.000070830199
  5       0.000001307340
  6       0.001250176311
  7       0.000467889507
  8       0.000663039668
  9       0.000087146904
 10      -0.000052626744
 11       0.000033709429
 12       0.000022103172
 13      -0.000030990202
 14       0.000075086019
 15      -0.000018916464
 16      -0.000407414209
 17       0.000070032184
 18      -0.000086357086
 19      -0.000077897805
 20       0.001400395581
 21      -0.000398481666
 22       0.001020144494
 23       0.000449409819
 24      -0.000095562955
 25       0.000022262727
 26       0.000029862483
 27      -0.000112068975
 28      -0.000007618003
 29      -0.000003379941
 30      -0.000181647336
 31       0.000054411970
 32      -0.000081580157
 33      -0.000083473497
 34       0.000312065055
 35      -0.000196149095
 36       0.000015152319
 37       0.000371080835
 38       0.000010183317
 39      -0.000105584708
 40      -0.000042475909
 41       0.000012760468
 42       0.000020238500
 43       0.995153862440
 44       0.032842048074
 45       0.000485255372
 46      -0.000557237627
 47       0.002342290342
 48      -0.021312052611
 49       0.000708031090
 50       0.005498920706
 51      -0.001850907369
 52       0.000080273087
 53      -0.000203165611
 54       0.000634899354
 55       0.001146038946
 56      -0.000258736541
 57      -0.000049887919
 58      -0.000793492971
 59      -0.000248343684
 60      -0.000131577869
 61       0.000010292168
 62       0.001032486901
 63       0.000590494476
 64       0.001090244656
 65      -0.001420553466
 66       0.000035987298
 67      -0.000008882026
 68       0.000033796586
 69       0.000000263647
 70      -0.000154241779
 71      -0.000069583234
 72      -0.001114438348
 73       0.000068745566
 74       0.000048873928
 75       0.000095758786
 76       0.010619958993
 77       0.001784982408
 78       0.004967679627
 79       0.000887779674
 80       0.000292286599
 81      -0.000021080069
 82       0.000081520418
 83       0.000294961822
 84      -0.000095241864
 85       0.000058990417
 86       0.000402147822
 87      -0.000015730361
 88      -0.000024772880
 89      -0.000115573654
 90      -0.002638015906
 91      -0.000495561741
 92      -0.000471055695
 93      -0.000527441244
 94      -0.000007560533
 95      -0.000058934470
 96      -0.000056872208
 97       0.000001393983
 98      -0.000039948719
 99      -0.000000285094
100      -0.000432513430
101       0.000078311350
102      -0.000147752077
103      -0.000015952415
104      -0.002212892485
105       0.000168745709
106       0.000346443593
107      -0.000878170190
108       0.000000899883
109       0.000014047614
110       0.000014369596
111       0.000101308261
112       0.000041226885
113      -0.000668795302
114      -0.000772552476
115      -0.000096222388
116      -0.000366723278
117       0.000038150377
118      -0.000160781147
119      -0.000051684223
120      -0.000111253791
121      -0.000095233296
122       0.000060636130
123       0.000002589538
124       0.000992591900
125      -0.000021626963
126      -0.000084501413
127       0.000016968848
128       0.000081290961
129       0.000032150688
130       0.000021438784
131       0.000019566185
132       0.000015156920
133       0.000131442386
134       0.000146847201
135       0.000027259646
136       0.000025603196
137       0.000025128841
138      -0.000831892977
139       0.002000866256
140       0.001888449696
141       0.000069950917
142       0.000686835550
143      -0.000771404805
144       0.002204618318
145      -0.001147375312
146       0.000603289464
147       0.001536626865
148      -0.000185258623
149       0.000443942124
150       0.000003022959
151       0.000013753797
152      -0.000001942460
153       0.000097776926
154       0.000359231405
155      -0.000044383282
156      -0.000015105180
157       0.000029396628
 Sym=     1a
 Ene= -1.03109656998883E+01
 Spin= Alpha
 Occup= 2.000000
  1      -0.000029677030
  2      -0.000375369827
  3      -0.000019879041
  4      -0.000035479758
  5       0.000016379943
  6       0.001932327293
  7       0.000732429215
  8       0.000848257857
  9      -0.000322352013
 10       0.000020637479
 11      -0.000040059798
 12      -0.000053626497
 13       0.000003999631
 14       0.000175335815
 15      -0.000132015381
 16      -0.000997055564
 17      -0.000077754075
 18       0.000507924786
 19       0.000036740356
 20       0.003653797800
 21       0.001942903643
 22       0.003270754351
 23      -0.001662781408
 24      -0.001085481837
 25      -0.000387955024
 26      -0.000499471159
 27      -0.001758139997
 28       0.000382011941
 29       0.000006556629
 30      -0.000900146201
 31      -0.000805506317
 32      -0.000313200454
 33       0.000609905293
 34       0.007910915781
 35      -0.002428943949
 36      -0.003733798578
 37       0.002779578745
 38      -0.000000628451
 39      -0.001289654009
 40      -0.001001418110
 41       0.000136261896
 42       0.001072971709
 43       0.000043746469
 44       0.000612453293
 45       0.000047447017
 46      -0.000229466278
 47      -0.000146040956
 48      -0.001703923677
 49       0.000101503340
 50       0.001601211114
 51       0.000819528392
 52       0.000147377095
 53       0.000143273338
 54      -0.000153273295
 55       0.000028453884
 56       0.000031438385
 57       0.000380963404
 58       0.001282707931
 59       0.000408573444
 60      -0.000137207420
 61      -0.000189758550
 62      -0.003556049809
 63      -0.001934871554
 64       0.002277620285
 65       0.000328943904
 66       0.000124020899
 67      -0.000023750707
 68      -0.000019547031
 69       0.000034385826
 70      -0.000098497924
 71      -0.001036076710
 72       0.000463827172
 73       0.000405006032
 74      -0.000266153505
 75      -0.000245430402
 76      -0.005250353719
 77      -0.003751638711
 78       0.003476444412
 79       0.000981352239
 80      -0.000231902719
 81      -0.000582062306
 82       0.000499005164
 83       0.000183822181
 84      -0.000391581544
 85       0.000125882698
 86       0.000544924064
 87       0.000375879647
 88      -0.000070013293
 89       0.000258670988
 90       0.000420686646
 91      -0.001616352303
 92      -0.000858232466
 93      -0.000596437952
 94      -0.000056709792
 95       0.000107534626
 96      -0.000085605308
 97       0.000052747147
 98      -0.000016515921
 99      -0.995171239216
100      -0.037293035112
101      -0.000782271561
102       0.000764207747
103       0.000951159550
104       0.012400431063
105      -0.008701232688
106       0.003130519373
107       0.005990582790
108       0.000646973684
109       0.001526272808
110       0.000873566132
111       0.000641140287
112      -0.000763202685
113       0.000543591869
114      -0.000268881136
115      -0.000138878625
116       0.000113164620
117       0.000005143314
118      -0.000101083767
119      -0.001270165254
120      -0.000099380361
121      -0.000001730007
122       0.000043196923
123       0.000181214963
124       0.000616606011
125       0.000110712312
126      -0.000051337111
127       0.000075347728
128      -0.000207103129
129      -0.001205069320
130      -0.000112565745
131       0.000021796258
132      -0.000022872900
133       0.000322841863
134      -0.000747512311
135       0.000084146065
136      -0.000004698422
137       0.000017232166
138       0.000194387623
139      -0.000377283935
140       0.000043022931
141      -0.000077117746
142      -0.000041216425
143      -0.000035909574
144      -0.000723273375
145      -0.000007854659
146       0.000007656339
147      -0.000029794843
148      -0.000162258721
149       0.000497667201
150       0.000027666119
151       0.000012049046
152       0.000006547462
153      -0.000572230325
154      -0.000084353301
155       0.000045231696
156      -0.000270332282
157      -0.000030312525
 Sym=     1a
 Ene= -1.02370552503482E+01
 Spin= Alpha
 Occup= 2.000000
  1      -0.000048493026
  2      -0.000072132370
  3       0.000132224466
  4       0.000220445420
  5      -0.000130241890
  6      -0.002163961887
  7      -0.000475882882
  8       0.000545806611
  9       0.000409806246
 10      -0.000747370318
 11      -0.000070890170
 12      -0.000383451631
 13      -0.001207810955
 14       0.000767144000
 15      -0.000037260356
 16      -0.000406357904
 17      -0.000059593018
 18      -0.000010781016
 19      -0.000116677103
 20       0.002667762641
 21      -0.000132134180
 22       0.001075398638
 23       0.000397156841
 24       0.000018736637
 25      -0.000050656598