[Molden Format]
[Title]
 Molden file created by orca_2mkl for BaseName=/kaggle/working/Trp-2/Trp_InterFrag

[Atoms] AU
O    1   8          2.8359592523        -1.5951575139         3.2193941335 
O    2   8          4.5633730292        -3.6833275686        -0.0643716310 
N    3   7         -3.1718146089         3.8254897759         1.0056442183 
N    4   7          7.3782977399         0.7435788878        -1.1206907454 
C    5   6          0.3071806522         2.1545618030        -0.8260200801 
C    6   6          2.9356876593         1.8632869756        -1.8358538213 
C    7   6         -1.6306106659         0.2364897770        -0.7152462239 
C    8   6          4.9054607025         0.9032796434         0.1117149399 
C    9   6         -3.7890993198         1.3573600464         0.4439628093 
C   10   6         -0.7194055111         4.2920990632         0.2406490643 
C   11   6         -1.7573130237        -2.3080207931        -1.4773104127 
C   12   6         -6.0325311633         0.0154900851         0.8438496462 
C   13   6          4.1350117988        -1.7006174602         1.0334836637 
C   14   6         -3.9836957581        -3.6469522302        -1.0807494938 
C   15   6         -6.0998167521        -2.4963452304         0.0680811634 
H   16   1          2.9549023947         0.5585312356        -3.4434797482 
H   17   1          3.6358406406         3.6883277839        -2.5189614728 
H   18   1          4.8542113298         2.1781059009         1.7477717965 
H   19   1          0.1126050009         6.1382726789         0.5116905939 
H   20   1         -4.3315357579         5.0993843984         1.8255359166 
H   21   1         -0.1338984349        -3.2134981880        -2.3467337227 
H   22   1         -7.6552068692         0.9069589402         1.7290616180 
H   23   1         -4.1026218929        -5.6127058260        -1.6594006435 
H   24   1          8.6987098609         0.2917926123         0.2059121185 
H   25   1          7.8316751648         2.5162402672        -1.7186605654 
H   26   1         -7.8117026493        -3.5921974155         0.3525548664 
H   27   1          2.2690206252        -3.3011380169         3.6230358563 
[GTO]
  1 0
s   6 1.0 
     5484.6717000000         0.8317352088
      825.2349500000         1.5308074829
      188.0469600000         2.4771490916
       52.9645000000         3.2562802462
       16.8975700000         2.7928936336
        5.7996353000         0.9549376963
s   3 1.0 
       15.5396160000        -0.6179336976
        3.5999336000        -0.2757210088
        1.0137618000         0.8142076427
p   3 1.0 
       15.5396160000         3.1169455889
        3.5999336000         2.4014372483
        1.0137618000         1.0543605133
s   1 1.0 
        0.2700058000         0.2669561389
p   1 1.0 
        0.2700058000         0.2774319373
d   1 1.0 
        0.8000000000         1.9292013661

  2 0
s   6 1.0 
     5484.6717000000         0.8317352088
      825.2349500000         1.5308074829
      188.0469600000         2.4771490916
       52.9645000000         3.2562802462
       16.8975700000         2.7928936336
        5.7996353000         0.9549376963
s   3 1.0 
       15.5396160000        -0.6179336976
        3.5999336000        -0.2757210088
        1.0137618000         0.8142076427
p   3 1.0 
       15.5396160000         3.1169455889
        3.5999336000         2.4014372483
        1.0137618000         1.0543605133
s   1 1.0 
        0.2700058000         0.2669561389
p   1 1.0 
        0.2700058000         0.2774319373
d   1 1.0 
        0.8000000000         1.9292013661

  3 0
s   6 1.0 
     4173.5110000000         0.6790079572
      627.4579000000         1.2504643275
      142.9021000000         2.0203691378
       40.2343300000         2.6442129843
       12.8202100000         2.2650039968
        4.3904370000         0.7791872309
s   3 1.0 
       11.6263580000        -0.5158738103
        2.7162800000        -0.2550239186
        0.7722180000         0.6727344163
p   3 1.0 
       11.6263580000         2.0680595460
        2.7162800000         1.6100106206
        0.7722180000         0.7644899877
s   1 1.0 
        0.2120313000         0.2226947990
p   1 1.0 
        0.2120313000         0.2050879094
d   1 1.0 
        0.8000000000         1.9292013661

  4 0
s   6 1.0 
     4173.5110000000         0.6790079572
      627.4579000000         1.2504643275
      142.9021000000         2.0203691378
       40.2343300000         2.6442129843
       12.8202100000         2.2650039968
        4.3904370000         0.7791872309
s   3 1.0 
       11.6263580000        -0.5158738103
        2.7162800000        -0.2550239186
        0.7722180000         0.6727344163
p   3 1.0 
       11.6263580000         2.0680595460
        2.7162800000         1.6100106206
        0.7722180000         0.7644899877
s   1 1.0 
        0.2120313000         0.2226947990
p   1 1.0 
        0.2120313000         0.2050879094
d   1 1.0 
        0.8000000000         1.9292013661

  5 0
s   6 1.0 
     3047.5249000000         0.5363343823
      457.3695100000         0.9894506076
      103.9486900000         1.5972822308
       29.2101550000         2.0791870615
        9.2866630000         1.7741742532
        3.1639270000         0.6125798260
s   3 1.0 
        7.8682724000        -0.3995563516
        1.8812885000        -0.1841552393
        0.5442493000         0.5163903794
p   3 1.0 
        7.8682724000         1.2960827175
        1.8812885000         0.9937536282
        0.5442493000         0.4959527138
s   1 1.0 
        0.1687144000         0.1876178721
p   1 1.0 
        0.1687144000         0.1541275509
d   1 1.0 
        0.8000000000         1.9292013661

  6 0
s   6 1.0 
     3047.5249000000         0.5363343823
      457.3695100000         0.9894506076
      103.9486900000         1.5972822308
       29.2101550000         2.0791870615
        9.2866630000         1.7741742532
        3.1639270000         0.6125798260
s   3 1.0 
        7.8682724000        -0.3995563516
        1.8812885000        -0.1841552393
        0.5442493000         0.5163903794
p   3 1.0 
        7.8682724000         1.2960827175
        1.8812885000         0.9937536282
        0.5442493000         0.4959527138
s   1 1.0 
        0.1687144000         0.1876178721
p   1 1.0 
        0.1687144000         0.1541275509
d   1 1.0 
        0.8000000000         1.9292013661

  7 0
s   6 1.0 
     3047.5249000000         0.5363343823
      457.3695100000         0.9894506076
      103.9486900000         1.5972822308
       29.2101550000         2.0791870615
        9.2866630000         1.7741742532
        3.1639270000         0.6125798260
s   3 1.0 
        7.8682724000        -0.3995563516
        1.8812885000        -0.1841552393
        0.5442493000         0.5163903794
p   3 1.0 
        7.8682724000         1.2960827175
        1.8812885000         0.9937536282
        0.5442493000         0.4959527138
s   1 1.0 
        0.1687144000         0.1876178721
p   1 1.0 
        0.1687144000         0.1541275509
d   1 1.0 
        0.8000000000         1.9292013661

  8 0
s   6 1.0 
     3047.5249000000         0.5363343823
      457.3695100000         0.9894506076
      103.9486900000         1.5972822308
       29.2101550000         2.0791870615
        9.2866630000         1.7741742532
        3.1639270000         0.6125798260
s   3 1.0 
        7.8682724000        -0.3995563516
        1.8812885000        -0.1841552393
        0.5442493000         0.5163903794
p   3 1.0 
        7.8682724000         1.2960827175
        1.8812885000         0.9937536282
        0.5442493000         0.4959527138
s   1 1.0 
        0.1687144000         0.1876178721
p   1 1.0 
        0.1687144000         0.1541275509
d   1 1.0 
        0.8000000000         1.9292013661

  9 0
s   6 1.0 
     3047.5249000000         0.5363343823
      457.3695100000         0.9894506076
      103.9486900000         1.5972822308
       29.2101550000         2.0791870615
        9.2866630000         1.7741742532
        3.1639270000         0.6125798260
s   3 1.0 
        7.8682724000        -0.3995563516
        1.8812885000        -0.1841552393
        0.5442493000         0.5163903794
p   3 1.0 
        7.8682724000         1.2960827175
        1.8812885000         0.9937536282
        0.5442493000         0.4959527138
s   1 1.0 
        0.1687144000         0.1876178721
p   1 1.0 
        0.1687144000         0.1541275509
d   1 1.0 
        0.8000000000         1.9292013661

 10 0
s   6 1.0 
     3047.5249000000         0.5363343823
      457.3695100000         0.9894506076
      103.9486900000         1.5972822308
       29.2101550000         2.0791870615
        9.2866630000         1.7741742532
        3.1639270000         0.6125798260
s   3 1.0 
        7.8682724000        -0.3995563516
        1.8812885000        -0.1841552393
        0.5442493000         0.5163903794
p   3 1.0 
        7.8682724000         1.2960827175
        1.8812885000         0.9937536282
        0.5442493000         0.4959527138
s   1 1.0 
        0.1687144000         0.1876178721
p   1 1.0 
        0.1687144000         0.1541275509
d   1 1.0 
        0.8000000000         1.9292013661

 11 0
s   6 1.0 
     3047.5249000000         0.5363343823
      457.3695100000         0.9894506076
      103.9486900000         1.5972822308
       29.2101550000         2.0791870615
        9.2866630000         1.7741742532
        3.1639270000         0.6125798260
s   3 1.0 
        7.8682724000        -0.3995563516
        1.8812885000        -0.1841552393
        0.5442493000         0.5163903794
p   3 1.0 
        7.8682724000         1.2960827175
        1.8812885000         0.9937536282
        0.5442493000         0.4959527138
s   1 1.0 
        0.1687144000         0.1876178721
p   1 1.0 
        0.1687144000         0.1541275509
d   1 1.0 
        0.8000000000         1.9292013661

 12 0
s   6 1.0 
     3047.5249000000         0.5363343823
      457.3695100000         0.9894506076
      103.9486900000         1.5972822308
       29.2101550000         2.0791870615
        9.2866630000         1.7741742532
        3.1639270000         0.6125798260
s   3 1.0 
        7.8682724000        -0.3995563516
        1.8812885000        -0.1841552393
        0.5442493000         0.5163903794
p   3 1.0 
        7.8682724000         1.2960827175
        1.8812885000         0.9937536282
        0.5442493000         0.4959527138
s   1 1.0 
        0.1687144000         0.1876178721
p   1 1.0 
        0.1687144000         0.1541275509
d   1 1.0 
        0.8000000000         1.9292013661

 13 0
s   6 1.0 
     3047.5249000000         0.5363343823
      457.3695100000         0.9894506076
      103.9486900000         1.5972822308
       29.2101550000         2.0791870615
        9.2866630000         1.7741742532
        3.1639270000         0.6125798260
s   3 1.0 
        7.8682724000        -0.3995563516
        1.8812885000        -0.1841552393
        0.5442493000         0.5163903794
p   3 1.0 
        7.8682724000         1.2960827175
        1.8812885000         0.9937536282
        0.5442493000         0.4959527138
s   1 1.0 
        0.1687144000         0.1876178721
p   1 1.0 
        0.1687144000         0.1541275509
d   1 1.0 
        0.8000000000         1.9292013661

 14 0
s   6 1.0 
     3047.5249000000         0.5363343823
      457.3695100000         0.9894506076
      103.9486900000         1.5972822308
       29.2101550000         2.0791870615
        9.2866630000         1.7741742532
        3.1639270000         0.6125798260
s   3 1.0 
        7.8682724000        -0.3995563516
        1.8812885000        -0.1841552393
        0.5442493000         0.5163903794
p   3 1.0 
        7.8682724000         1.2960827175
        1.8812885000         0.9937536282
        0.5442493000         0.4959527138
s   1 1.0 
        0.1687144000         0.1876178721
p   1 1.0 
        0.1687144000         0.1541275509
d   1 1.0 
        0.8000000000         1.9292013661

 15 0
s   6 1.0 
     3047.5249000000         0.5363343823
      457.3695100000         0.9894506076
      103.9486900000         1.5972822308
       29.2101550000         2.0791870615
        9.2866630000         1.7741742532
        3.1639270000         0.6125798260
s   3 1.0 
        7.8682724000        -0.3995563516
        1.8812885000        -0.1841552393
        0.5442493000         0.5163903794
p   3 1.0 
        7.8682724000         1.2960827175
        1.8812885000         0.9937536282
        0.5442493000         0.4959527138
s   1 1.0 
        0.1687144000         0.1876178721
p   1 1.0 
        0.1687144000         0.1541275509
d   1 1.0 
        0.8000000000         1.9292013661

 16 0
s   3 1.0 
       18.7311370000         0.2149354183
        2.8253937000         0.3645711272
        0.6401217000         0.4150514277
s   1 1.0 
        0.1612778000         0.1813806839
p   1 1.0 
        1.1000000000         1.6057611426

 17 0
s   3 1.0 
       18.7311370000         0.2149354183
        2.8253937000         0.3645711272
        0.6401217000         0.4150514277
s   1 1.0 
        0.1612778000         0.1813806839
p   1 1.0 
        1.1000000000         1.6057611426

 18 0
s   3 1.0 
       18.7311370000         0.2149354183
        2.8253937000         0.3645711272
        0.6401217000         0.4150514277
s   1 1.0 
        0.1612778000         0.1813806839
p   1 1.0 
        1.1000000000         1.6057611426

 19 0
s   3 1.0 
       18.7311370000         0.2149354183
        2.8253937000         0.3645711272
        0.6401217000         0.4150514277
s   1 1.0 
        0.1612778000         0.1813806839
p   1 1.0 
        1.1000000000         1.6057611426

 20 0
s   3 1.0 
       18.7311370000         0.2149354183
        2.8253937000         0.3645711272
        0.6401217000         0.4150514277
s   1 1.0 
        0.1612778000         0.1813806839
p   1 1.0 
        1.1000000000         1.6057611426

 21 0
s   3 1.0 
       18.7311370000         0.2149354183
        2.8253937000         0.3645711272
        0.6401217000         0.4150514277
s   1 1.0 
        0.1612778000         0.1813806839
p   1 1.0 
        1.1000000000         1.6057611426

 22 0
s   3 1.0 
       18.7311370000         0.2149354183
        2.8253937000         0.3645711272
        0.6401217000         0.4150514277
s   1 1.0 
        0.1612778000         0.1813806839
p   1 1.0 
        1.1000000000         1.6057611426

 23 0
s   3 1.0 
       18.7311370000         0.2149354183
        2.8253937000         0.3645711272
        0.6401217000         0.4150514277
s   1 1.0 
        0.1612778000         0.1813806839
p   1 1.0 
        1.1000000000         1.6057611426

 24 0
s   3 1.0 
       18.7311370000         0.2149354183
        2.8253937000         0.3645711272
        0.6401217000         0.4150514277
s   1 1.0 
        0.1612778000         0.1813806839
p   1 1.0 
        1.1000000000         1.6057611426

 25 0
s   3 1.0 
       18.7311370000         0.2149354183
        2.8253937000         0.3645711272
        0.6401217000         0.4150514277
s   1 1.0 
        0.1612778000         0.1813806839
p   1 1.0 
        1.1000000000         1.6057611426

 26 0
s   3 1.0 
       18.7311370000         0.2149354183
        2.8253937000         0.3645711272
        0.6401217000         0.4150514277
s   1 1.0 
        0.1612778000         0.1813806839
p   1 1.0 
        1.1000000000         1.6057611426

 27 0
s   3 1.0 
       18.7311370000         0.2149354183
        2.8253937000         0.3645711272
        0.6401217000         0.4150514277
s   1 1.0 
        0.1612778000         0.1813806839
p   1 1.0 
        1.1000000000         1.6057611426

[5D]
[7F]
[9G]
[MO]
 Sym=     1a
 Ene= -1.91825725593148E+01
 Spin= Alpha
 Occup= 2.000000
  1      -0.995106193001
  2      -0.030368010605
  3      -0.000378077469
  4       0.001659481871
  5       0.001121248293
  6       0.021970282605
  7       0.003494657452
  8      -0.000853230357
  9      -0.006140771471
 10       0.000754457106
 11      -0.000441467329
 12       0.000420530486
 13       0.000570387394
 14      -0.000440397077
 15       0.000539905186
 16       0.000559740772
 17       0.000060567386
 18       0.000168976503
 19      -0.000040788186
 20      -0.002493152423
 21      -0.001187990504
 22      -0.001657173146
 23       0.001445692066
 24       0.000312268039
 25      -0.000116038917
 26       0.000224343127
 27       0.000370463056
 28      -0.000250020012
 29       0.000004249573
 30       0.000039822036
 31      -0.000011824727
 32      -0.000008025275
 33      -0.000008651862
 34      -0.000346664448
 35       0.000146935136
 36       0.000208077877
 37       0.000063694602
 38       0.000003571905
 39       0.000001747729
 40      -0.000003454643
 41       0.000007154627
 42      -0.000004388107
 43       0.000019872178
 44       0.000326341860
 45      -0.000123775798
 46      -0.000169151734
 47       0.000078758985
 48       0.000627481782
 49      -0.000270473173
 50       0.001171391610
 51      -0.000860616405
 52      -0.000078830353
 53       0.000097198511
 54       0.000037806585
 55       0.000026773388
 56      -0.000021412828
 57      -0.000036297918
 58      -0.000400287384
 59      -0.000117629785
 60       0.000088252085
 61       0.000039293000
 62       0.001539346197
 63       0.000719215862
 64      -0.001422248337
 65      -0.000600253000
 66      -0.000014400496
 67       0.000007627399
 68      -0.000079899751
 69      -0.000000918467
 70       0.000042129871
 71      -0.000046913432
 72      -0.000387868338
 73       0.000146161387
 74      -0.000024808421
 75       0.000011260738
 76       0.002019229797
 77       0.001627790259
 78      -0.000894785290
 79       0.000181604682
 80      -0.000024906171
 81       0.000032619270
 82      -0.000064755699
 83       0.000027476712
 84      -0.000125641809
 85       0.000002003806
 86      -0.000027758882
 87       0.000019997438
 88       0.000011347177
 89      -0.000012922056
 90      -0.000429447046
 91      -0.001580081811
 92       0.000113212779
 93       0.000591585323
 94       0.000022135408
 95       0.000042936673
 96      -0.000004413532
 97      -0.000002248012
 98      -0.000016599011
 99       0.000074655824
100       0.001026022607
101      -0.000119804449
102      -0.000269344988
103      -0.000091918285
104      -0.003198381869
105       0.000015425597
106       0.001623061189
107       0.004040568075
108       0.000058338064
109      -0.000124954395
110      -0.000216361876
111       0.000120082813
112       0.000151972951
113       0.000006445342
114       0.000059755303
115      -0.000008823592
116       0.000000857148
117       0.000012144234
118      -0.000951593207
119      -0.000179873926
120       0.000806504259
121       0.000292536579
122      -0.000001566031
123       0.000004032294
124      -0.000001063441
125      -0.000007459663
126       0.000004661064
127      -0.000006336667
128      -0.000025205167
129       0.000014065869
130      -0.000032217804
131      -0.000004638971
132       0.000820535329
133       0.000216627528
134      -0.000332612475
135      -0.000275712950
136      -0.000010722302
137      -0.000014127107
138       0.000021453635
139      -0.000014876739
140      -0.000007500041
141      -0.000021965750
142      -0.000257612203
143      -0.000118722460
144       0.000026769584
145      -0.000059410244
146       0.000635736859
147       0.001365823015
148       0.000206402167
149      -0.000023153544
150      -0.000019035154
151       0.000005254000
152       0.000022474702
153      -0.000002714269
154      -0.000009982253
155      -0.000003815335
156      -0.000020011422
157       0.000012266316
158       0.000012402623
159       0.000004500419
160       0.000554431091
161       0.000253021896
162      -0.000278271355
163      -0.000201033235
164      -0.000002469367
165      -0.000003510735
166       0.000005210845
167       0.000006201221
168      -0.000000415888
169      -0.000033045901
170      -0.000003411388
171       0.000237193980
172       0.000057325325
173      -0.000685474769
174      -0.007908900707
175       0.006292751433
176      -0.000647783478
177      -0.010236990269
178       0.000142704972
179       0.000090889340
180       0.000217767786
181       0.000221095982
182      -0.000267113513
183      -0.000000922511
184       0.000008266427
185       0.000023315354
186       0.000006709898
187       0.000013920309
188       0.000718865362
189       0.000122300421
190       0.000354905141
191      -0.000132484226
192       0.000000216740
193      -0.000016836353
194      -0.000015275894
195      -0.000008701230
196       0.000006358780
197       0.000002381673
198       0.000015017989
199      -0.000001400126
200      -0.000004219333
201      -0.000003919561
202      -0.000450728615
203      -0.000108562858
204      -0.000212355924
205       0.000037318166
206      -0.000003992794
207       0.000004236718
208      -0.000007214903
209       0.000004810538
210      -0.000001100986
211      -0.000027708827
212      -0.000820980353
213       0.000004274202
214       0.000028117306
215      -0.000080558257
216      -0.000076539822
217       0.000068261637
218      -0.000062974456
219       0.000010543428
220       0.000018989602
221      -0.000049269053
222      -0.001496560958
223      -0.000054400106
224      -0.000055284377
225       0.000040531804
226      -0.000022743274
227       0.000060619478
228      -0.000003441102
229       0.000001426042
230       0.000010914741
231       0.000009467572
232      -0.000010809248
233      -0.000002743869
234      -0.000003186164
235      -0.000005659553
236      -0.000176444941
237      -0.000589294395
238      -0.000016740245
239      -0.000042951799
240      -0.000037599633
241       0.000016681881
242       0.000102702711
243      -0.000001024798
244       0.000002859104
245       0.000002882919
246       0.000002926654
247       0.000086099756
248       0.000007759595
249      -0.000001440638
250       0.000012352242
251       0.000181281103
252       0.000303622329
253      -0.000032405086
254      -0.000067761318
255      -0.000008140765
256      -0.000182003870
257      -0.000694205115
258       0.000003142262
259       0.000061665737
260       0.000024366227
261      -0.000001684493
262      -0.000033321715
263      -0.000001618066
264       0.000004116552
265      -0.000002967205
266       0.000435876813
267      -0.000413113747
268       0.000410637723
269       0.001693599999
270      -0.000152574731
 Sym=     1a
 Ene= -1.91211721843911E+01
 Spin= Alpha
 Occup= 2.000000
  1       0.000495580977
  2      -0.000580622032
  3      -0.000152275534
  4      -0.000180393025
  5       0.000106726544
  6       0.003315296754
  7       0.001059102407
  8       0.002494290254
  9      -0.000765058079
 10      -0.000063602254
 11      -0.000082663356
 12      -0.000476656084
 13       0.000037003097
 14       0.000307061830
 15       0.995207355753
 16       0.030920620362
 17      -0.000457804730
 18       0.001918466315
 19       0.001122948401
 20      -0.027281490982
 21       0.001648724689
 22      -0.006981462373
 23      -0.003869243510
 24       0.000066606311
 25       0.000060650987
 26      -0.000282184685
 27       0.000219921452
 28       0.000150980136
 29       0.000005411831
 30       0.000046414180
 31      -0.000025923870
 32      -0.000013307470
 33      -0.000000400968
 34      -0.000722975596
 35       0.000189516055
 36       0.000385939808
 37       0.000124123466
 38      -0.000002565090
 39      -0.000014222458
 40       0.000004957832
 41       0.000011739183
 42      -0.000013999663
 43       0.000022461339
 44       0.000213330531
 45      -0.000018676553
 46      -0.000102977212
 47       0.000081420834
 48       0.000743904936
 49      -0.000298529942
 50       0.001053434257
 51      -0.000677180408
 52      -0.000035980577
 53       0.000086532837
 54       0.000074014523
 55       0.000024674578
 56      -0.000107597322
 57      -0.000038718982
 58      -0.000277370777
 59       0.000023830838
 60       0.000162495560
 61       0.000066345272
 62       0.002396337550
 63       0.002225551781
 64      -0.002943049515
 65      -0.001595069980
 66      -0.000089782574
 67      -0.000024778044
 68      -0.000018598464
 69       0.000066733810
 70       0.000011671368
 71       0.000094420324
 72       0.000871728824
 73       0.000000522934
 74      -0.000207219454
 75       0.000032121324
 76      -0.003733880671
 77       0.002679790609
 78       0.001738903196
 79      -0.001582045661
 80      -0.000122239534
 81       0.000001046580
 82      -0.000028622145
 83      -0.000028220196
 84      -0.000008050547
 85      -0.000005011382
 86      -0.000088793171
 87      -0.000050945007
 88      -0.000027870521
 89      -0.000048380572
 90      -0.000178597015
 91      -0.000951990863
 92      -0.000425905992
 93       0.000637970350
 94      -0.000011613854
 95      -0.000000145153
 96       0.000009337309
 97      -0.000077293241
 98      -0.000073931771
 99      -0.000076307817
100      -0.000768252877
101       0.000017732707
102       0.000225667872
103      -0.000230930093
104       0.006351368551
105      -0.002989816604
106      -0.001394912170
107       0.005048021139
108       0.000313080163
109      -0.000187944633
110      -0.000243498832
111       0.000284029492
112       0.000127665970
113       0.000004591392
114       0.000059601834
115      -0.000023456984
116      -0.000008765838
117       0.000012082621
118      -0.000396317203
119       0.000248410247
120       0.001137931357
121       0.000086903239
122       0.000004673360
123      -0.000007459866
124       0.000003567334
125      -0.000016858108
126       0.000017840102
127      -0.000010641534
128      -0.000036184358
129       0.000036038737
130      -0.000058680962
131      -0.000007760945
132       0.002146821522
133       0.000300958093
134      -0.001031909329
135      -0.000567761213
136      -0.000019797376
137      -0.000007475546
138       0.000026182470
139      -0.000007922282
140       0.000000266627
141       0.000015726830
142       0.000214852102
143       0.000180220802
144      -0.000029618826
145       0.000082783988
146      -0.000123640242
147      -0.001076502892
148      -0.000144137809
149      -0.000305885293
150      -0.000005217257
151       0.000011828223
152      -0.000070310704
153       0.000021534165
154       0.000058940772
155      -0.000001308970
156       0.000003216188
157       0.000024789725
158       0.000026076628
159      -0.000012256011
160       0.000533530470
161       0.000296168902
162      -0.000105261511
163      -0.000031110751
164      -0.000003941589
165      -0.000001646444
166      -0.000002000925
167       0.000011866820
168      -0.000005155607
169       0.000291788962
170       0.000713765522
171       0.000044681402
172      -0.000191149239
173       0.000085973189
174       0.007573808179
175       0.002595949396
176      -0.014223244616
177      -0.008111115136
178       0.000061497913
179       0.000093117876
180      -0.000640971461
181       0.000339811113
182       0.000292813831
183       0.000009887884
184       0.000049828141
185      -0.000047071565
186       0.000010235485
187      -0.000014490662
188      -0.000819982140
189      -0.000079085835
190      -0.000577779105
191       0.000167294872
192       0.000015751714
193       0.000032654991
194       0.000017279429
195       0.000010078210
196      -0.000023183507
197      -0.000001774801
198      -0.000006355223
199       0.000019659814
200      -0.000022049627
201      -0.000004553130
202       0.000109992284
203       0.000071229802
204       0.000046402029
205      -0.000149036606
206       0.000005791012
207      -0.000009982909
208       0.000002244805
209       0.000003913928
210       0.000004166766
211       0.000360511321
212      -0.000010199826
213      -0.000075749109
214      -0.000054067065
215       0.000073030123
216      -0.000117494324
217      -0.000734476839
218      -0.000019820807
219       0.000064856222
220       0.000072776789
221      -0.000625167416
222      -0.001168238636
223       0.000080274619
224      -0.000050538917
225       0.000011318549
226      -0.000020700028
227       0.000226884598
228      -0.000017517556
229       0.000007980286
230       0.000021268917
231       0.000003122551
232      -0.000000203116
233      -0.000008620967
234      -0.000005781490
235      -0.000005452050
236       0.000149385989
237       0.000112508932
238      -0.000054572997
239       0.000034329967
240      -0.000008806095
241       0.000006753328
242       0.000061237095
243      -0.000008465894
244      -0.000000073991
245      -0.000005697186
246      -0.000016775324
247      -0.000174943720
248      -0.000008711681
249       0.000002649294
250      -0.000021214013
251       0.000250733640
252       0.000005616554
253       0.000020983928
254      -0.000036744570
255       0.000015907331
256      -0.000124056478
257      -0.000218200301
258      -0.000049538103
259       0.000015682963
260       0.000082353721
261       0.000004627340
262       0.000025877430
263      -0.000001184343
264       0.000001193134
265       0.000011210335
266       0.000125597106
267       0.000154148147
268      -0.000109311170
269       0.000023437114
270       0.000155177384
 Sym=     1a
 Ene= -1.43699608597726E+01
 Spin= Alpha
 Occup= 2.000000
  1      -0.000003294104
  2      -0.000039108376
  3      -0.000015332414
  4      -0.000005242282
  5      -0.000000651289
  6       0.000177930626
  7       0.000102463826
  8       0.000057668771
  9      -0.000067315976
 10       0.000006795454
 11      -0.000018923169
 12      -0.000011453439
 13       0.000006136676
 14      -0.000002297701
 15       0.000002118894
 16       0.000033901103
 17      -0.000001663633
 18      -0.000002188112
 19      -0.000003868807
 20      -0.000135273062
 21       0.000043702367