[Molden Format]
[Title]
 Molden file created by orca_2mkl for BaseName=/kaggle/working/Phe-F5-2/Phe-F5_InterFrag

[Atoms] AU
F    1   9          1.1581659043         4.9317562417        -0.0751506289 
F    2   9         -1.1501364580        -3.4215778223         2.1295569468 
F    3   9          3.4799325653        -5.0756702252         0.7004836833 
F    4   9          5.7760424146         3.2712331008        -1.5227394290 
F    5   9          6.9601618177        -1.7380699425        -1.1413397828 
O    6   8         -3.5209226149        -1.5734880243        -3.0839499026 
O    7   8         -6.7249343777        -2.2817687177        -0.3639272383 
N    8   7         -7.0745167050         2.9091634633         0.4027800076 
C    9   6         -2.7013994132         1.7305318249         1.8768533195 
C   10   6         -4.6568577810         1.8001266590        -0.3255846951 
C   11   6         -0.1205890938         0.8118887081         1.1170511328 
C   12   6          1.6945703366         2.4556178528         0.1470225829 
C   13   6          0.5460760506        -1.7316675504         1.2648088192 
C   14   6          2.9065726488        -2.6135630528         0.5261545577 
C   15   6          4.0734199550         1.6327573948        -0.6073390822 
C   16   6         -5.1233366772        -0.8756027144        -1.2417163659 
C   17   6          4.6800031467        -0.9170670853        -0.4149347261 
H   18   1         -3.4563015400         0.5390103646         3.3866689115 
H   19   1         -2.5513362609         3.6595926083         2.5986606725 
H   20   1         -3.8379733068         2.8910031952        -1.8760747523 
H   21   1         -6.7174510622         4.6063170555         1.2374021211 
H   22   1         -7.8407458502         1.7951169950         1.7752937679 
H   23   1         -3.8395228822        -3.3445355776        -3.4845283793 
[GTO]
  1 0
s   6 1.0 
     7001.7130900000         0.9926451524
     1051.3660900000         1.8312282616
      239.2856900000         2.9661117939
       67.3974453000         3.9092612383
       21.5199573000         3.3558966734
        7.4031013000         1.1407074825
s   3 1.0 
       20.8479528000        -0.7545105751
        4.8083083400        -0.3389211134
        1.3440698600         1.0041546559
p   3 1.0 
       20.8479528000         4.5483779701
        4.8083083400         3.5107202883
        1.3440698600         1.4903462703
s   1 1.0 
        0.3581513900         0.3299590716
p   1 1.0 
        0.3581513900         0.3949329681
d   1 1.0 
        0.8000000000         1.9292013661

  2 0
s   6 1.0 
     7001.7130900000         0.9926451524
     1051.3660900000         1.8312282616
      239.2856900000         2.9661117939
       67.3974453000         3.9092612383
       21.5199573000         3.3558966734
        7.4031013000         1.1407074825
s   3 1.0 
       20.8479528000        -0.7545105751
        4.8083083400        -0.3389211134
        1.3440698600         1.0041546559
p   3 1.0 
       20.8479528000         4.5483779701
        4.8083083400         3.5107202883
        1.3440698600         1.4903462703
s   1 1.0 
        0.3581513900         0.3299590716
p   1 1.0 
        0.3581513900         0.3949329681
d   1 1.0 
        0.8000000000         1.9292013661

  3 0
s   6 1.0 
     7001.7130900000         0.9926451524
     1051.3660900000         1.8312282616
      239.2856900000         2.9661117939
       67.3974453000         3.9092612383
       21.5199573000         3.3558966734
        7.4031013000         1.1407074825
s   3 1.0 
       20.8479528000        -0.7545105751
        4.8083083400        -0.3389211134
        1.3440698600         1.0041546559
p   3 1.0 
       20.8479528000         4.5483779701
        4.8083083400         3.5107202883
        1.3440698600         1.4903462703
s   1 1.0 
        0.3581513900         0.3299590716
p   1 1.0 
        0.3581513900         0.3949329681
d   1 1.0 
        0.8000000000         1.9292013661

  4 0
s   6 1.0 
     7001.7130900000         0.9926451524
     1051.3660900000         1.8312282616
      239.2856900000         2.9661117939
       67.3974453000         3.9092612383
       21.5199573000         3.3558966734
        7.4031013000         1.1407074825
s   3 1.0 
       20.8479528000        -0.7545105751
        4.8083083400        -0.3389211134
        1.3440698600         1.0041546559
p   3 1.0 
       20.8479528000         4.5483779701
        4.8083083400         3.5107202883
        1.3440698600         1.4903462703
s   1 1.0 
        0.3581513900         0.3299590716
p   1 1.0 
        0.3581513900         0.3949329681
d   1 1.0 
        0.8000000000         1.9292013661

  5 0
s   6 1.0 
     7001.7130900000         0.9926451524
     1051.3660900000         1.8312282616
      239.2856900000         2.9661117939
       67.3974453000         3.9092612383
       21.5199573000         3.3558966734
        7.4031013000         1.1407074825
s   3 1.0 
       20.8479528000        -0.7545105751
        4.8083083400        -0.3389211134
        1.3440698600         1.0041546559
p   3 1.0 
       20.8479528000         4.5483779701
        4.8083083400         3.5107202883
        1.3440698600         1.4903462703
s   1 1.0 
        0.3581513900         0.3299590716
p   1 1.0 
        0.3581513900         0.3949329681
d   1 1.0 
        0.8000000000         1.9292013661

  6 0
s   6 1.0 
     5484.6717000000         0.8317352088
      825.2349500000         1.5308074829
      188.0469600000         2.4771490916
       52.9645000000         3.2562802462
       16.8975700000         2.7928936336
        5.7996353000         0.9549376963
s   3 1.0 
       15.5396160000        -0.6179336976
        3.5999336000        -0.2757210088
        1.0137618000         0.8142076427
p   3 1.0 
       15.5396160000         3.1169455889
        3.5999336000         2.4014372483
        1.0137618000         1.0543605133
s   1 1.0 
        0.2700058000         0.2669561389
p   1 1.0 
        0.2700058000         0.2774319373
d   1 1.0 
        0.8000000000         1.9292013661

  7 0
s   6 1.0 
     5484.6717000000         0.8317352088
      825.2349500000         1.5308074829
      188.0469600000         2.4771490916
       52.9645000000         3.2562802462
       16.8975700000         2.7928936336
        5.7996353000         0.9549376963
s   3 1.0 
       15.5396160000        -0.6179336976
        3.5999336000        -0.2757210088
        1.0137618000         0.8142076427
p   3 1.0 
       15.5396160000         3.1169455889
        3.5999336000         2.4014372483
        1.0137618000         1.0543605133
s   1 1.0 
        0.2700058000         0.2669561389
p   1 1.0 
        0.2700058000         0.2774319373
d   1 1.0 
        0.8000000000         1.9292013661

  8 0
s   6 1.0 
     4173.5110000000         0.6790079572
      627.4579000000         1.2504643275
      142.9021000000         2.0203691378
       40.2343300000         2.6442129843
       12.8202100000         2.2650039968
        4.3904370000         0.7791872309
s   3 1.0 
       11.6263580000        -0.5158738103
        2.7162800000        -0.2550239186
        0.7722180000         0.6727344163
p   3 1.0 
       11.6263580000         2.0680595460
        2.7162800000         1.6100106206
        0.7722180000         0.7644899877
s   1 1.0 
        0.2120313000         0.2226947990
p   1 1.0 
        0.2120313000         0.2050879094
d   1 1.0 
        0.8000000000         1.9292013661

  9 0
s   6 1.0 
     3047.5249000000         0.5363343823
      457.3695100000         0.9894506076
      103.9486900000         1.5972822308
       29.2101550000         2.0791870615
        9.2866630000         1.7741742532
        3.1639270000         0.6125798260
s   3 1.0 
        7.8682724000        -0.3995563516
        1.8812885000        -0.1841552393
        0.5442493000         0.5163903794
p   3 1.0 
        7.8682724000         1.2960827175
        1.8812885000         0.9937536282
        0.5442493000         0.4959527138
s   1 1.0 
        0.1687144000         0.1876178721
p   1 1.0 
        0.1687144000         0.1541275509
d   1 1.0 
        0.8000000000         1.9292013661

 10 0
s   6 1.0 
     3047.5249000000         0.5363343823
      457.3695100000         0.9894506076
      103.9486900000         1.5972822308
       29.2101550000         2.0791870615
        9.2866630000         1.7741742532
        3.1639270000         0.6125798260
s   3 1.0 
        7.8682724000        -0.3995563516
        1.8812885000        -0.1841552393
        0.5442493000         0.5163903794
p   3 1.0 
        7.8682724000         1.2960827175
        1.8812885000         0.9937536282
        0.5442493000         0.4959527138
s   1 1.0 
        0.1687144000         0.1876178721
p   1 1.0 
        0.1687144000         0.1541275509
d   1 1.0 
        0.8000000000         1.9292013661

 11 0
s   6 1.0 
     3047.5249000000         0.5363343823
      457.3695100000         0.9894506076
      103.9486900000         1.5972822308
       29.2101550000         2.0791870615
        9.2866630000         1.7741742532
        3.1639270000         0.6125798260
s   3 1.0 
        7.8682724000        -0.3995563516
        1.8812885000        -0.1841552393
        0.5442493000         0.5163903794
p   3 1.0 
        7.8682724000         1.2960827175
        1.8812885000         0.9937536282
        0.5442493000         0.4959527138
s   1 1.0 
        0.1687144000         0.1876178721
p   1 1.0 
        0.1687144000         0.1541275509
d   1 1.0 
        0.8000000000         1.9292013661

 12 0
s   6 1.0 
     3047.5249000000         0.5363343823
      457.3695100000         0.9894506076
      103.9486900000         1.5972822308
       29.2101550000         2.0791870615
        9.2866630000         1.7741742532
        3.1639270000         0.6125798260
s   3 1.0 
        7.8682724000        -0.3995563516
        1.8812885000        -0.1841552393
        0.5442493000         0.5163903794
p   3 1.0 
        7.8682724000         1.2960827175
        1.8812885000         0.9937536282
        0.5442493000         0.4959527138
s   1 1.0 
        0.1687144000         0.1876178721
p   1 1.0 
        0.1687144000         0.1541275509
d   1 1.0 
        0.8000000000         1.9292013661

 13 0
s   6 1.0 
     3047.5249000000         0.5363343823
      457.3695100000         0.9894506076
      103.9486900000         1.5972822308
       29.2101550000         2.0791870615
        9.2866630000         1.7741742532
        3.1639270000         0.6125798260
s   3 1.0 
        7.8682724000        -0.3995563516
        1.8812885000        -0.1841552393
        0.5442493000         0.5163903794
p   3 1.0 
        7.8682724000         1.2960827175
        1.8812885000         0.9937536282
        0.5442493000         0.4959527138
s   1 1.0 
        0.1687144000         0.1876178721
p   1 1.0 
        0.1687144000         0.1541275509
d   1 1.0 
        0.8000000000         1.9292013661

 14 0
s   6 1.0 
     3047.5249000000         0.5363343823
      457.3695100000         0.9894506076
      103.9486900000         1.5972822308
       29.2101550000         2.0791870615
        9.2866630000         1.7741742532
        3.1639270000         0.6125798260
s   3 1.0 
        7.8682724000        -0.3995563516
        1.8812885000        -0.1841552393
        0.5442493000         0.5163903794
p   3 1.0 
        7.8682724000         1.2960827175
        1.8812885000         0.9937536282
        0.5442493000         0.4959527138
s   1 1.0 
        0.1687144000         0.1876178721
p   1 1.0 
        0.1687144000         0.1541275509
d   1 1.0 
        0.8000000000         1.9292013661

 15 0
s   6 1.0 
     3047.5249000000         0.5363343823
      457.3695100000         0.9894506076
      103.9486900000         1.5972822308
       29.2101550000         2.0791870615
        9.2866630000         1.7741742532
        3.1639270000         0.6125798260
s   3 1.0 
        7.8682724000        -0.3995563516
        1.8812885000        -0.1841552393
        0.5442493000         0.5163903794
p   3 1.0 
        7.8682724000         1.2960827175
        1.8812885000         0.9937536282
        0.5442493000         0.4959527138
s   1 1.0 
        0.1687144000         0.1876178721
p   1 1.0 
        0.1687144000         0.1541275509
d   1 1.0 
        0.8000000000         1.9292013661

 16 0
s   6 1.0 
     3047.5249000000         0.5363343823
      457.3695100000         0.9894506076
      103.9486900000         1.5972822308
       29.2101550000         2.0791870615
        9.2866630000         1.7741742532
        3.1639270000         0.6125798260
s   3 1.0 
        7.8682724000        -0.3995563516
        1.8812885000        -0.1841552393
        0.5442493000         0.5163903794
p   3 1.0 
        7.8682724000         1.2960827175
        1.8812885000         0.9937536282
        0.5442493000         0.4959527138
s   1 1.0 
        0.1687144000         0.1876178721
p   1 1.0 
        0.1687144000         0.1541275509
d   1 1.0 
        0.8000000000         1.9292013661

 17 0
s   6 1.0 
     3047.5249000000         0.5363343823
      457.3695100000         0.9894506076
      103.9486900000         1.5972822308
       29.2101550000         2.0791870615
        9.2866630000         1.7741742532
        3.1639270000         0.6125798260
s   3 1.0 
        7.8682724000        -0.3995563516
        1.8812885000        -0.1841552393
        0.5442493000         0.5163903794
p   3 1.0 
        7.8682724000         1.2960827175
        1.8812885000         0.9937536282
        0.5442493000         0.4959527138
s   1 1.0 
        0.1687144000         0.1876178721
p   1 1.0 
        0.1687144000         0.1541275509
d   1 1.0 
        0.8000000000         1.9292013661

 18 0
s   3 1.0 
       18.7311370000         0.2149354183
        2.8253937000         0.3645711272
        0.6401217000         0.4150514277
s   1 1.0 
        0.1612778000         0.1813806839
p   1 1.0 
        1.1000000000         1.6057611426

 19 0
s   3 1.0 
       18.7311370000         0.2149354183
        2.8253937000         0.3645711272
        0.6401217000         0.4150514277
s   1 1.0 
        0.1612778000         0.1813806839
p   1 1.0 
        1.1000000000         1.6057611426

 20 0
s   3 1.0 
       18.7311370000         0.2149354183
        2.8253937000         0.3645711272
        0.6401217000         0.4150514277
s   1 1.0 
        0.1612778000         0.1813806839
p   1 1.0 
        1.1000000000         1.6057611426

 21 0
s   3 1.0 
       18.7311370000         0.2149354183
        2.8253937000         0.3645711272
        0.6401217000         0.4150514277
s   1 1.0 
        0.1612778000         0.1813806839
p   1 1.0 
        1.1000000000         1.6057611426

 22 0
s   3 1.0 
       18.7311370000         0.2149354183
        2.8253937000         0.3645711272
        0.6401217000         0.4150514277
s   1 1.0 
        0.1612778000         0.1813806839
p   1 1.0 
        1.1000000000         1.6057611426

 23 0
s   3 1.0 
       18.7311370000         0.2149354183
        2.8253937000         0.3645711272
        0.6401217000         0.4150514277
s   1 1.0 
        0.1612778000         0.1813806839
p   1 1.0 
        1.1000000000         1.6057611426

[5D]
[7F]
[9G]
[MO]
 Sym=     1a
 Ene= -2.47319651784431E+01
 Spin= Alpha
 Occup= 2.000000
  1       0.003036503950
  2       0.000163485715
  3       0.000043788061
  4      -0.000024224605
  5      -0.000011558999
  6      -0.000196506571
  7      -0.000246788275
  8       0.000224576896
  9       0.000052055429
 10       0.000028034104
 11      -0.000009487437
 12      -0.000000914079
 13       0.000050128913
 14       0.000046045461
 15       0.002164562187
 16       0.000137639102
 17       0.000045029517
 18      -0.000009575786
 19      -0.000017113434
 20      -0.000169912007
 21      -0.000305978604
 22      -0.000012850237
 23       0.000121694835
 24       0.000011977515
 25       0.000028971135
 26       0.000023896399
 27      -0.000025437015
 28      -0.000055042115
 29       0.006529756409
 30       0.000519370508
 31      -0.000037599393
 32      -0.000022589083
 33       0.000019119836
 34      -0.001894405777
 35       0.000046470772
 36      -0.000070906351
 37      -0.000012285299
 38      -0.000116976381
 39      -0.000055476789
 40      -0.000036624142
 41      -0.000069324196
 42      -0.000031658211
 43       0.005663685764
 44       0.000494496558
 45      -0.000019334587
 46       0.000045029917
 47       0.000000524633
 48      -0.001878640697
 49       0.000076683124
 50       0.000017932285
 51      -0.000034860775
 52      -0.000104247787
 53      -0.000086251977
 54      -0.000056770629
 55      -0.000014587902
 56       0.000047362179
 57      -0.994974036485
 58      -0.028702688880
 59       0.001367498433
 60      -0.000492150714
 61      -0.000436271810
 62       0.018842143229
 63      -0.004642637869
 64       0.001669839816
 65       0.001481269131
 66      -0.000253927856
 67      -0.000365062922
 68       0.000202601906
 69       0.000636984459
 70      -0.000500780986
 71       0.000000048533
 72      -0.000000230428
 73       0.000001626551
 74      -0.000004984095
 75       0.000004522451
 76       0.000019096167
 77      -0.000009610343
 78       0.000031964052
 79      -0.000015445310
 80      -0.000003101940
 81      -0.000000124512
 82       0.000001314389
 83       0.000001643370
 84      -0.000001011712
 85       0.000002114424
 86       0.000026995631
 87      -0.000001238664
 88      -0.000000337431
 89       0.000002363145
 90      -0.000160529067
 91      -0.000043357209
 92      -0.000042272861
 93      -0.000001160566
 94       0.000004052193
 95      -0.000002184560
 96       0.000000472325
 97      -0.000001198934
 98      -0.000005597191
 99       0.000002206929
100       0.000030731258
101       0.000011532972
102      -0.000004683231
103       0.000000893223
104      -0.000054334614
105      -0.000075530423
106       0.000022117592
107       0.000011436131
108       0.000003141966
109      -0.000001753970
110      -0.000000106996
111      -0.000006563633
112       0.000001746335
113       0.000010998579
114       0.000056267372
115      -0.000065518032
116       0.000020710559
117       0.000027459593
118      -0.001799378527
119      -0.000712839216
120       0.000237350630
121       0.000062378425
122       0.000005761245
123       0.000009069550
124      -0.000003561151
125      -0.000017780040
126       0.000017163975
127       0.000004220701
128       0.000045740568
129      -0.000002240976
130      -0.000002301710
131       0.000014706964
132      -0.000097729480
133      -0.000019914447
134       0.000113897930
135      -0.000035299944
136       0.000007097410
137       0.000001569404
138      -0.000001719202
139       0.000002385454
140      -0.000002028338
141       0.000028817192
142       0.000233688647
143       0.000154081099
144      -0.000053958493
145      -0.000050201041
146      -0.002431086184
147      -0.003324140980
148       0.001129795448
149       0.001091649459
150       0.000037229278
151       0.000020671640
152       0.000023498812
153       0.000033135016
154      -0.000016236793
155      -0.000027617178
156      -0.000005345006
157       0.000141403606
158      -0.000088936328
159      -0.000038152544
160       0.007837385651
161       0.002147440168
162      -0.002194202875
163      -0.000432225318
164      -0.000036562776
165       0.000005502136
166      -0.000009897331
167      -0.000058860499
168      -0.000033916868
169      -0.000027454249
170      -0.000008674143
171       0.000158887786
172      -0.000018759891
173      -0.000057132404
174       0.007824000014
175       0.002951839537
176       0.000331936354
177      -0.001156181327
178      -0.000023101962
179      -0.000028585614
180      -0.000025945943
181       0.000008873183
182       0.000059783195
183       0.000062567232
184       0.000600248698
185      -0.000138660199
186      -0.000031488481
187       0.000058158344
188      -0.009927320002
189       0.003968532333
190      -0.006355905214
191      -0.000459937188
192       0.000096864733
193      -0.000045423287
194       0.000044550497
195       0.000249336485
196       0.000057853881
197       0.000062248918
198       0.000598001440
199      -0.000099789210
200       0.000116269802
201       0.000018404551
202      -0.009895195570
203       0.006363793327
204       0.002661751556
205      -0.002834300727
206       0.000048021054
207       0.000069941866
208       0.000118061562
209       0.000043116346
210      -0.000236079778
211      -0.000003515722
212      -0.000024304343
213      -0.000003685633
214      -0.000003192229
215      -0.000005765909
216       0.000227860750
217      -0.000055865383
218      -0.000010109653
219       0.000138718373
220      -0.000003938330
221      -0.000003721774
222      -0.000000494926
223      -0.000002786990
224       0.000007564347
225      -0.000074941599
226      -0.001798527407
227      -0.000869086594
228       0.000311367851
229       0.000274990392
230       0.002807153432
231      -0.013229010722
232       0.004800280745
233       0.004201799217
234       0.000379771336
235       0.000405285134
236      -0.000087214878
237      -0.000438719756
238       0.000384530944
239       0.000038623974
240       0.000122011474
241       0.000013885172
242      -0.000004553661
243      -0.000004839729
244       0.000030593631
245       0.000110092929
246       0.000013637119
247      -0.000004927293
248      -0.000002228654
249      -0.000009147240
250       0.000001380566
251       0.000004269315
252      -0.000004389552
253       0.000000312245
254       0.000014812804
255      -0.000051037213
256      -0.000000837225
257       0.000004768314
258       0.000000609902
259       0.000014204065
260      -0.000044505548
261       0.000000248432
262      -0.000002961427
263       0.000002947843
264       0.000010637282
265       0.000004161630
266       0.000001801550
267       0.000000698778
268       0.000002639337
 Sym=     1a
 Ene= -2.47306430943307E+01
 Spin= Alpha
 Occup= 2.000000
  1      -0.994961304089
  2      -0.028791286357
  3      -0.000294411664
  4       0.001452109754
  5      -0.000140796980
  6       0.019204420270
  7       0.001069110254
  8      -0.005040978697
  9       0.000458592969
 10      -0.000356744779
 11       0.000119804949
 12      -0.000104415208
 13      -0.000760746642
 14      -0.000330810551
 15       0.002925885854
 16       0.000126303424
 17       0.000007555877
 18       0.000052746468
 19      -0.000010356416
 20      -0.000027277695
 21      -0.000056024840
 22      -0.000382766982
 23       0.000084610727
 24       0.000026098759
 25       0.000027541266
 26       0.000046408051
 27       0.000035139532
 28      -0.000088420234
 29       0.003696015558
 30       0.000218481295
 31       0.000001639080
 32      -0.000007019091
 33       0.000003470475
 34      -0.000677391839
 35       0.000024631965
 36      -0.000017064511
 37      -0.000018854629
 38      -0.000031979506
 39      -0.000018114088
 40      -0.000013257330
 41      -0.000014264825
 42      -0.000004645256
 43       0.009414963369
 44       0.000598900455
 45       0.000043807022
 46      -0.000028267009
 47      -0.000012255355
 48      -0.001988251649
 49      -0.000004557851
 50       0.000102687798
 51      -0.000012693366
 52      -0.000108730049
 53      -0.000100040747
 54      -0.000056503740
 55       0.000010197620
 56       0.000045899477
 57      -0.002945146782
 58      -0.000013165396
 59      -0.000011594950
 60       0.000039101694
 61      -0.000001252434
 62      -0.000065706841
 63       0.000169498688
 64      -0.000234490361
 65      -0.000028051974
 66       0.000018482692
 67       0.000019139236
 68      -0.000016543123
 69      -0.000032821673
 70       0.000047305175
 71      -0.000003541479
 72      -0.000030612937
 73       0.000001427604
 74       0.000009472389
 75       0.000004190239
 76       0.000306658315
 77      -0.000055918177
 78      -0.000013602585
 79       0.000054783915
 80      -0.000003251000
 81       0.000000231419
 82      -0.000002809935
 83      -0.000002773387
 84       0.000001335346
 85       0.000008109918
 86       0.000110248548
 87      -0.000011478286
 88       0.000007519578
 89       0.000002685927
 90      -0.000602628095
 91      -0.000086556856
 92      -0.000217195665
 93       0.000029248568
 94       0.000010357506
 95      -0.000007727469
 96       0.000010120002
 97       0.000013695047
 98      -0.000026860479
 99       0.000003671684
100       0.000076131852
101       0.000045586623
102      -0.000017950753
103       0.000008356023
104       0.000154472818
105      -0.000111446852
106       0.000022470730
107      -0.000154332155
108       0.000017010411
109      -0.000031319330
110       0.000014671859
111      -0.000013166336
112      -0.000004771397
113       0.000058574113
114       0.000422639400
115      -0.000188461324
116       0.000024960118
117       0.000083287953
118      -0.007144654399
119      -0.002451560922
120       0.000779473960
121       0.000879121023
122      -0.000010745609
123      -0.000012051368
124      -0.000022646838
125      -0.000081872717
126       0.000041927291
127       0.000007359358
128       0.000068520313
129      -0.000072644895
130      -0.000007537971
131       0.000037626984
132      -0.000112599236
133       0.000741756907
134       0.000010952226
135       0.000413284932
136       0.000042002237
137       0.000078665793
138      -0.000001604978
139      -0.000001434140
140      -0.000012730721
141       0.000046585073
142       0.000377915641
143       0.000222556805
144      -0.000222773472
145      -0.000073038337
146      -0.008885408934
147      -0.010404610122
148       0.006432415071
149       0.002916953060
150       0.000044531620
151       0.000108032752
152      -0.000030662175
153      -0.000153053586
154       0.000031376951
155      -0.000084975849
156      -0.001899285069
157       0.000162528058
158      -0.000947287489
159       0.000081562728
160       0.005326657402
161       0.003444875256
162      -0.015895082094
163       0.001454369438
164       0.000445526414
165       0.000040898131
166       0.000109953683
167       0.000567498878
168       0.000328873345
169      -0.000038818264
170      -0.000099453734
171       0.000015000230
172       0.000186513854
173      -0.000023795389
174       0.009399076026
175       0.000839591024
176       0.003959460546
177      -0.000983051866
178      -0.000048739263
179      -0.000014286625
180      -0.000064977261
181      -0.000076840525
182       0.000108006712
183       0.000040595451
184       0.000357660374
185       0.000003729566
186       0.000065885722
187      -0.000017895314
188      -0.004024340401
189       0.000256284332
190      -0.002816202886
191       0.000393880392
192       0.000038366199
193       0.000031293489
194       0.000020003929
195      -0.000003267211
196      -0.000013096809
197       0.000064294435
198       0.000598554274
199       0.000128150616
200      -0.000111174004
201      -0.000028184004
202      -0.010439303665
203       0.003482643681
204       0.006571970065
205      -0.002428632268
206       0.000037182651
207       0.000116467408
208       0.000094438835
209      -0.000068909354
210      -0.000238855257
211      -0.000003299775
212      -0.000000720587
213      -0.000004870841
214      -0.000018098867
215      -0.000014225886
216       0.000476246032
217      -0.000568253787
218       0.000090215998
219       0.000428737842
220      -0.000016498419
221      -0.000010646361
222      -0.000026430792
223      -0.000009193857
224       0.000018429221
225      -0.000030221875
226      -0.000038223081
227      -0.000059537704
228       0.000160316390
229      -0.000007203028
230       0.008147649340
231      -0.002176394709
232       0.002110282554
233       0.000479307211
234      -0.000029971572
235      -0.000025819894
236       0.000012447754
237       0.000024812534
238      -0.000037540402
239       0.000194641398
240       0.000052824293
241       0.000022807157
242      -0.000010969519
243       0.000001072518
244       0.000142885545
245       0.000426323499
246       0.000081975600
247       0.000010492807
248      -0.000052510981
249      -0.000156145556
250       0.000598103193
251      -0.000040948785
252      -0.000030895173
253       0.000043984372
254       0.000057344864
255      -0.000159682730
256      -0.000007808173
257       0.000013527194
258       0.000009663855
259       0.000047749414
260      -0.000090528030
261      -0.000003960438
262       0.000002934163
263       0.000014070087
264      -0.000025323137
265       0.000011029141
266      -0.000001528342
267      -0.000010102591
268       0.000000238474
 Sym=     1a
 Ene= -2.47300898803608E+01
 Spin= Alpha
 Occup= 2.000000
  1       0.002798105286
  2       0.000042493521
  3       0.000022378962
  4       0.000041536950
  5      -0.000016464971
  6      -0.000111978292
  7      -0.000155096538
  8      -0.000325508336
  9       0.000118384301
 10      -0.000040753122
 11       0.000010815364
 12      -0.000027353057
 13      -0.000097338583
 14      -0.000004405351
 15       0.994810632040
 16       0.028874046018
 17       0.000990273879
 18       0.001014077130
 19      -0.000494292148
 20      -0.019598719838
 21      -0.003491686158
 22      -0.003594536641
 23       0.001785535788
 24       0.000190245964
 25       0.000310808749
 26       0.000357937869
 27       0.000014726181
 28      -0.000784141443
 29      -0.020024586741
 30      -0.000921288536
 31      -0.000046475319
 32      -0.000008157095
 33       0.000029184067
 34       0.002253354382
 35       0.000046182560
 36       0.000129018516
 37      -0.000084785364
 38       0.000127525582
 39       0.000058934834
 40       0.000017702889
 41       0.000059394949