
                                 *****************
                                 * O   R   C   A *
                                 *****************

                                            #,                                       
                                            ###                                      
                                            ####                                     
                                            #####                                    
                                            ######                                   
                                           ########,                                 
                                     ,,################,,,,,                         
                               ,,#################################,,                 
                          ,,##########################################,,             
                       ,#########################################, ''#####,          
                    ,#############################################,,   '####,        
                  ,##################################################,,,,####,       
                ,###########''''           ''''###############################       
              ,#####''   ,,,,##########,,,,          '''####'''          '####       
            ,##' ,,,,###########################,,,                        '##       
           ' ,,###''''                  '''############,,,                           
         ,,##''                                '''############,,,,        ,,,,,,###''
      ,#''                                            '''#######################'''  
     '                                                          ''''####''''         
             ,#######,   #######,   ,#######,      ##                                
            ,#'     '#,  ##    ##  ,#'     '#,    #''#        ,####,    ,#,          
            ##       ##  ##   ,#'  ##            #'  '#       #'       ,# #          
            ##       ##  #######   ##           ,######,      #####,      #          
            '#,     ,#'  ##    ##  '#,     ,#' ,#      #,     #,   #      #          
             '#######'   ##     ##  '#######'  #'      '#     '####' #    #          



                #########################################################
                #                        -***-                          #
                #          Department of theory and spectroscopy        #
                #                                                       #
                #                      Frank Neese                      #
                #                                                       #
                #     Directorship, Architecture, Infrastructure        #
                #                    SHARK, DRIVERS                     #
                #        Core code/Algorithms in most modules           #
                #                                                       #
                #        Max Planck Institute fuer Kohlenforschung      #
                #                Kaiser Wilhelm Platz 1                 #
                #                 D-45470 Muelheim/Ruhr                 #
                #                      Germany                          #
                #                                                       #
                #                  All rights reserved                  #
                #                        -***-                          #
                #########################################################


                         Program Version 6.1.1  -  RELEASE   -
                                (GIT: $487d211c$)
                          ($2025-11-21 10:33:24 +0100$)
                                                                         
                                  - NO-DMRG VERSION -                    
                                                                         


 With contributions from (in alphabetic order):
[Max-Planck-Institut fuer Kohlenforschung]                               
  Daniel Aravena         : Magnetic Suceptibility                        
  Michael Atanasov       : Ab Initio Ligand Field Theory (pilot matlab implementation)
  Alexander A. Auer      : GIAO ZORA, VPT2 properties, NMR spectrum      
  Ute Becker             : All parallelization in ORCA, NUMFREQ, NUMCALC 
  Giovanni Bistoni       : ED, misc. LED, open-shell LED, HFLD           
  Dmytro Bykov           : pre 5.0 version of the SCF Hessian            
  Marcos Casanova-Páez   : Triplet and SCS-CIS(D). UHF-(DLPNO)-IP/EA/STEOM-CCSD. UHF-CVS-IP/STEOM-CCSD   
  Vijay G. Chilkuri      : MRCI spin determinant printing, contributions to CSF-ICE 
  Pauline Colinet        : FMM embedding                                 
  Dipayan Datta          : RHF DLPNO-CCSD density                        
  Achintya Kumar Dutta   : EOM-CC, STEOM-CC                              
  Nicolas Foglia         : Exact transition moments, OPA infrastructure, MCD improvements    
  Dmitry Ganyushin       : Spin-Orbit,Spin-Spin,Magnetic field MRCI      
  Miquel Garcia-Rates    : C-PCM and meta-GGA Hessian, CCSD/C-PCM, Gaussian charge scheme 
  Tiago L. C. Gouveia    : GS-ROHF, GS-ROCIS                             
  Yang Guo               : DLPNO-NEVPT2, F12-NEVPT2, CIM, IAO-localization        
  Andreas Hansen         : Spin unrestricted coupled pair/coupled cluster methods 
  Ingolf Harden          : AUTO-CI MPn and infrastructure                
  Benjamin Helmich-Paris : MC-RPA, TRAH-(SCF,CASSCF), AVAS, COSX integrals, SCF dyn. polar., MC-PDFT, srDFT 
  Lee Huntington         : MR-EOM, pCC                                   
  Robert Izsak           : Overlap fitted RIJCOSX, COSX-SCS-MP3, EOM     
  Riya Kayal             : Wick's Theorem for AUTO-CI, AUTO-CI UHF-CCSDT 
  Emily Kempfer          : AUTO-CI RHF CISDT and CCSDT, approximate NEVPT4
  Christian Kollmar      : KDIIS, OOCD, Brueckner-CCSD(T), CCSD density, CASPT2, CASPT2-K, improved NEVPT2 
  Axel Koslowski         : Symmetry handling                             
  Simone Kossmann        : meta-GGA functionals, TD-DFT gradient, OOMP2, (MP2 Hessian; deprecated post 5.0) 
  Lucas Lang             : DCDCAS, Hyperfine gauge corrections, ICE-SOC+SSC
  Marvin Lechner         : AUTO-CI (C++ implementation), FIC-MRCC        
  Spencer Leger          : CASSCF response                               
  Dagmar Lenk            : GEPOL surface, SMD, ORCA-2-JSON               
  Dimitrios Liakos       : Extrapolation schemes; Compound Job, Property file
  Dimitrios Manganas     : Further ROCIS development; embedding schemes. LFT, Crystal Embedding 
  Dimitrios Pantazis     : SARC Basis sets                               
  Anastasios Papadopoulos: AUTO-CI, single reference methods and gradients 
  Taras Petrenko         : pre 6.0 DFT Hessian and TD-DFT gradient,  ECA, NRVS 
  Petra Pikulova         : Analytic Raman intensities                    
  Peter Pinski           : DLPNO-MP2, DLPNO-MP2 Gradient                 
  Shashank Vittal Rao    : ES-AILFT, MagRelax                            
  Christoph Reimann      : Effective Core Potentials                     
  Marius Retegan         : Local ZFS, SOC                                
  Christoph Riplinger    : Optimizer, TS searches, QM/MM, DLPNO-CCSD(T), (RO)-DLPNO pert. Triples 
  Michael Roemelt        : Original ROCIS implementation, recursive CI coupling coefficients
  Masaaki Saitow         : Open-shell DLPNO-CCSD energy and density      
  Barbara Sandhoefer     : DKH picture change effects                    
  Yorick L. A. Schmerwitz: GMF and freeze-and-release deltaSCF, NEB S-IDPP initial path                    
  Kantharuban Sivalingam : CASSCF convergence/infrastructure, NEVPT2, NEVPT3, NEVPT4(SD), FIC-MRCI and CEPA variants
  Bernardo de Souza      : ESD, SOC TD-DFT                               
  Georgi L. Stoychev     : AutoAux, RI-MP2 NMR, DLPNO-MP2 response, X2C  
  Van Anh Tran           : RI-MP2 g-tensors                              
  Willem Van den Heuvel  : Paramagnetic NMR                              
  Zikuan Wang            : NOTCH, Electric field optimization            
  Frank Wennmohs         : Technical directorship and infrastructure     
  Hang Xu                : AUTO-CI-Response properties                   
                                                                         
[FACCTs GmbH]                                                            
  Markus Bursch, Nicolas Foglia, Miquel Garcia-Rates, Ingolf Harden, Hagen Neugebauer, Anastasios Papadopoulos, 
  Christoph Riplinger, Bernardo de Souza, Georgi L. Stoychev                                                    
                                                                 
  APM, various basis sets, CI-OPT, improved COSX, DLPNO-Multilevel,           
  DOCKER, DRACO, updates on ESD, Fragmentator, GOAT, IRC, LR-CPCM, L-BFGS, MBIS, meta-GGA TD-DFT gradient, ML-optimized integration grids, 
  MM, NACMEs, nearIR, NEB, NEB-TS, NL-DFT gradient (VV10), 2- and 3-layer-ONIOM, interface openCOSMO-RS, QMMM,   
  Crystal-QMMM, RESP, rigid body optimization, SF, symmetry and pop. for TD-DFT, various functionals, SOLVATOR                                   
                                                                         
[Other institutions]                                                     
  V. Asgeirsson          : NEB                                           
  Christoph Bannwarth    : sTDA-DFT, sTD-DFT, PBEh-3c, B97-3c, D3        
  Giovanni Bistoni       : ETS/NOCV, ADLD/ADEX, COVALED                  
  Martin Brehm           : Molecular dynamics                            
  Ronald Cardenas        : ETS/NOCV                                      
  Martina Colucci        : COVALED                                       
  Sebastian Ehlert       : rSCAN, r2SCAN, r2SCAN-3c, D4, dhf basis sets  
  Marvin Friede          : D4 for Fr, Ra, Ac-Lr                          
  Lars Goerigk           : TD-DFT with DH, B97 family of functionals     
  Stefan Grimme          : VdW corrections, initial TS optimization, DFT functionals, gCP, sTDA/sTD-DF 
  Waldemar Hujo          : DFT-NL                                        
  H. Jonsson             : NEB                                           
  Holger Kruse           : gCP                                           
  Marcel Mueller         : wB97X-3c, vDZP basis set                      
  Hagen Neugebauer       : wr2SCAN, Native XTB                           
  Gianluca Regni         : ADLD/ADEX                                     
  Tobias Risthaus        : pre 6.0 range-separated hybrid DFT and stability analysis
  Lukas Wittmann         : regularized MP2, r2SCAN double-hybrids, wr2SCAN        
                                                                         
We gratefully acknowledge several colleagues who have allowed us to      
interface, adapt or use parts of their codes:                            
  Ed Valeev, F. Pavosevic, A. Kumar             : LibInt (2-el integral package), F12 methods 
  Garnet Chan, S. Sharma, J. Yang, R. Olivares  : DMRG                   
  Ulf Ekstrom                                   : XCFun DFT Library      
  Mihaly Kallay                                 : mrcc  (arbitrary order and MRCC methods)
  Frank Weinhold                                : gennbo (NPA and NBO analysis)           
  Simon Mueller                                 : openCOSMO-RS                            
  Christopher J. Cramer and Donald G. Truhlar   : smd solvation model                     
  S Lehtola, MJT Oliveira, MAL Marques          : LibXC Library                           
  Liviu Ungur et al                             : ANISO software                          


 Your calculation uses the libint2 library for the computation of 2-el integrals
 For citations please refer to: http://libint.valeyev.net

 Your ORCA version has been built with support for libXC version: 7.0.0
 For citations please refer to: https://libxc.gitlab.io

 This ORCA versions uses:
   CBLAS   interface :  Fast vector & matrix operations
   LAPACKE interface :  Fast linear algebra routines
   SCALAPACK package :  Parallel linear algebra routines
   Shared memory     :  Shared parallel matrices
   BLAS/LAPACK       :  OpenBLAS 0.3.29  USE64BITINT DYNAMIC_ARCH NO_AFFINITY SkylakeX SINGLE_THREADED
        Core in use  :  SkylakeX
   Copyright (c) 2011-2014, The OpenBLAS Project


  ***********************************
  * Starting time: Sun Mar 22 19:47:59 2026
  * Host name:     5dbf61b65fb0
  * Process ID:    772
  * Working dir.:  /kaggle/working
  ***********************************

NOTE: MaxCore=3000 MB was set to SCF,MP2,MDCI,CIPSI,MRCI,RASCI and CIS
      => If you want to overwrite this, your respective input block should be placed after the MaxCore statement
Your calculation utilizes the atom-pairwise dispersion correction
with the Becke-Johnson damping scheme (D3BJ)


Warning: RI is on but no J-basis has been assigned. Assigning Def2/J (nothing to worry about!)
================================================================================

----- Orbital basis set information -----
Your calculation utilizes the basis: 6-31G(d,p)
   H-He, Li-Ne : W. J. Hehre, R. Ditchfield and J.A. Pople, J. Chem. Phys. 56, 2257 (1972).
                 Note: He and Ne are unpublished basis sets taken from the Gaussian program.
                 Note: Li and B from J. D. Dill and J. A. Pople, J. Chem. Phys. 62, 2921 (1975).
   Na - Ar     : M. M. Francl, W. J. Pietro, W. J. Hehre, J. S. Binkley, M. S. Gordon, 
                 D. J. DeFrees and J. A. Pople, J. Chem. Phys. 77, 3654 (1982).
   K - Zn      : V. A. Rassolov, J. A. Pople, M. A. Ratner, and T. L. Windus, J. Chem. Phys. 109, 1223 (1998).

----- AuxJ basis set information -----
Your calculation utilizes the auxiliary basis: def2/J
   H-Rn: F. Weigend, Phys. Chem. Chem. Phys. 8, 1057 (2006).
   Fr-Lr: K. Eichkorn, F. Weigend, O. Treutler, R. Ahlrichs; Theor. Chem. Acc. 97, 119 (1997).

================================================================================
                                        WARNINGS
                       Please study these warnings very carefully!
================================================================================


================================================================================
                                       INPUT FILE
================================================================================
NAME = /kaggle/working/Nal-2/Nal_InterFrag.inp
|  1> 
|  2> !RKS B3LYP 6-31G(d,p) TightSCF D3BJ
|  3> 
|  4> %pal nprocs 2 end
|  5> %maxcore 3000
|  6> 
|  7> %elprop
|  8>   Polar 1      # polarizability via CP-SCF
|  9> end
| 10> 
| 11> %output
| 12>   PrintLevel Normal
| 13>   Print[ P_OrbEn ] 2
| 14> end
| 15> 
| 16> *xyz 0 1
| 17>   O     -1.914049    0.273293    1.861937
| 18>   O     -3.597977    0.726922    0.430829
| 19>   N     -3.230957   -2.003501   -0.531715
| 20>   C     -1.325332   -0.627000   -1.245142
| 21>   C     -0.207518    0.309115   -0.851245
| 22>   C      1.020760   -0.186217   -0.302428
| 23>   C     -2.142616   -1.158012   -0.043944
| 24>   C      2.026548    0.750877    0.112414
| 25>   C     -0.390641    1.674144   -0.968850
| 26>   C      1.292449   -1.574883   -0.149411
| 27>   C      1.787103    2.144494   -0.029031
| 28>   C      0.602163    2.596193   -0.560813
| 29>   C      3.245241    0.266263    0.660097
| 30>   C     -2.643980    0.036871    0.756287
| 31>   C      2.484986   -2.012322    0.385821
| 32>   C      3.471970   -1.084775    0.797519
| 33>   H     -2.018485   -0.098576   -1.908042
| 34>   H     -0.950422   -1.496639   -1.791922
| 35>   H     -1.493180   -1.748705    0.604807
| 36>   H     -1.325177    2.046815   -1.379183
| 37>   H      0.552653   -2.303718   -0.461472
| 38>   H      2.556936    2.841615    0.290293
| 39>   H      0.419630    3.661074   -0.670202
| 40>   H      3.996677    0.987804    0.969467
| 41>   H      2.670844   -3.076992    0.492157
| 42>   H     -3.891772   -1.399989   -1.021660
| 43>   H     -3.743023   -2.364424    0.272189
| 44>   H      4.406707   -1.442975    1.218473
| 45>   H     -2.266638    1.072748    2.295270
| 46> 
| 47> *
| 48> 
| 49>                          ****END OF INPUT****
================================================================================

                       ****************************
                       * Single Point Calculation *
                       ****************************

---------------------------------
CARTESIAN COORDINATES (ANGSTROEM)
---------------------------------
  O     -1.914049    0.273293    1.861937
  O     -3.597977    0.726922    0.430829
  N     -3.230957   -2.003501   -0.531715
  C     -1.325332   -0.627000   -1.245142
  C     -0.207518    0.309115   -0.851245
  C      1.020760   -0.186217   -0.302428
  C     -2.142616   -1.158012   -0.043944
  C      2.026548    0.750877    0.112414
  C     -0.390641    1.674144   -0.968850
  C      1.292449   -1.574883   -0.149411
  C      1.787103    2.144494   -0.029031
  C      0.602163    2.596193   -0.560813
  C      3.245241    0.266263    0.660097
  C     -2.643980    0.036871    0.756287
  C      2.484986   -2.012322    0.385821
  C      3.471970   -1.084775    0.797519
  H     -2.018485   -0.098576   -1.908042
  H     -0.950422   -1.496639   -1.791922
  H     -1.493180   -1.748705    0.604807
  H     -1.325177    2.046815   -1.379183
  H      0.552653   -2.303718   -0.461472
  H      2.556936    2.841615    0.290293
  H      0.419630    3.661074   -0.670202
  H      3.996677    0.987804    0.969467
  H      2.670844   -3.076992    0.492157
  H     -3.891772   -1.399989   -1.021660
  H     -3.743023   -2.364424    0.272189
  H      4.406707   -1.442975    1.218473
  H     -2.266638    1.072748    2.295270

----------------------------
CARTESIAN COORDINATES (A.U.)
----------------------------
  NO LB      ZA    FRAG     MASS         X           Y           Z
   0 O     8.0000    0    15.999   -3.617028    0.516449    3.518551
   1 O     8.0000    0    15.999   -6.799191    1.373684    0.814149
   2 N     7.0000    0    14.007   -6.105624   -3.786068   -1.004796
   3 C     6.0000    0    12.011   -2.504515   -1.184858   -2.352977
   4 C     6.0000    0    12.011   -0.392152    0.584143   -1.608620
   5 C     6.0000    0    12.011    1.928957   -0.351899   -0.571506
   6 C     6.0000    0    12.011   -4.048957   -2.188326   -0.083042
   7 C     6.0000    0    12.011    3.829621    1.418952    0.212432
   8 C     6.0000    0    12.011   -0.738205    3.163674   -1.830861
   9 C     6.0000    0    12.011    2.442375   -2.976098   -0.282346
  10 C     6.0000    0    12.011    3.377135    4.052506   -0.054861
  11 C     6.0000    0    12.011    1.137923    4.906094   -1.059783
  12 C     6.0000    0    12.011    6.132617    0.503164    1.247403
  13 C     6.0000    0    12.011   -4.996398    0.069676    1.429175
  14 C     6.0000    0    12.011    4.695943   -3.802737    0.729096
  15 C     6.0000    0    12.011    6.561072   -2.049928    1.507092
  16 H     1.0000    0     1.008   -3.814384   -0.186282   -3.605677
  17 H     1.0000    0     1.008   -1.796037   -2.828238   -3.386242
  18 H     1.0000    0     1.008   -2.821701   -3.304574    1.142920
  19 H     1.0000    0     1.008   -2.504222    3.867920   -2.606278
  20 H     1.0000    0     1.008    1.044363   -4.353396   -0.872056
  21 H     1.0000    0     1.008    4.831909    5.369874    0.548574
  22 H     1.0000    0     1.008    0.792986    6.918427   -1.266498
  23 H     1.0000    0     1.008    7.552625    1.866679    1.832027
  24 H     1.0000    0     1.008    5.047164   -5.814672    0.930042
  25 H     1.0000    0     1.008   -7.354383   -2.645596   -1.930658
  26 H     1.0000    0     1.008   -7.073288   -4.468114    0.514363
  27 H     1.0000    0     1.008    8.327469   -2.726828    2.302580
  28 H     1.0000    0     1.008   -4.283325    2.027200    4.337432

--------------------------------
INTERNAL COORDINATES (ANGSTROEM)
--------------------------------
 O      0   0   0     0.000000000000     0.00000000     0.00000000
 O      1   0   0     2.255983795706     0.00000000     0.00000000
 N      2   1   0     2.918287921242    85.82654346     0.00000000
 C      3   2   1     2.456652138166    70.67634939   288.98606618
 C      4   3   2     1.510289468423   147.74462294    54.42069329
 C      5   4   3     1.433604106787   121.31968234    79.92418253
 C      3   2   1     1.461936499935    56.11514335   326.64989175
 C      6   5   4     1.435913838203   119.02835417   182.84382836
 C      5   4   3     1.382269561263   119.46234376   262.66533370
 C      6   5   4     1.423243610408   122.80850673     2.90105067
 C      8   6   5     1.421094275106   119.55220089   359.95459571
 C     11   8   6     1.375102500080   120.38556194   359.91267451
 C      8   6   5     1.421274085366   119.30240974   179.85915750
 C      2   1   3     1.221557844874    30.05611224   342.30290785
 C     10   6   5     1.378394235665   121.10085680   180.15386314
 C     13   8   6     1.376805913326   120.94783968     0.00000000
 H      4   3   2     1.095047677129    87.43092546   291.54963707
 H      4   3   2     1.093525430349    88.02605594   184.08541443
 H      7   3   2     1.091587467107   109.16234895   136.42463165
 H      9   5   4     1.086560803833   118.99798238   357.71173970
 H     10   6   5     1.084380305318   119.64460165     0.38431261
 H     11   8   6     1.086548827023   118.72169299   179.92998131
 H     12  11   8     1.085935446319   120.39204229   180.08386665
 H     13   8   6     1.086732383652   118.43858586   180.00176837
 H     15  10   6     1.085989295509   119.81562449   180.06154464
 H      3   2   1     1.020269229857    61.54224217   185.80413736
 H      3   2   1     1.019185283205    90.45734658    78.66795860
 H     16  13   8     1.085929449497   120.27318520   180.07057977
 H      1   2   3     0.975307535516    81.20967655   195.92269612

---------------------------
INTERNAL COORDINATES (A.U.)
---------------------------
 O      0   0   0     0.000000000000     0.00000000     0.00000000
 O      1   0   0     4.263191536449     0.00000000     0.00000000
 N      2   1   0     5.514764951077    85.82654346     0.00000000
 C      3   2   1     4.642399747446    70.67634939   288.98606618
 C      4   3   2     2.854033478265   147.74462294    54.42069329
 C      5   4   3     2.709119146293   121.31968234    79.92418253
 C      3   2   1     2.762659610061    56.11514335   326.64989175
 C      6   5   4     2.713483906112   119.02835417   182.84382836
 C      5   4   3     2.612110914043   119.46234376   262.66533370
 C      6   5   4     2.689540645524   122.80850673     2.90105067
 C      8   6   5     2.685478990434   119.55220089   359.95459571
 C     11   8   6     2.598567131221   120.38556194   359.91267451
 C      8   6   5     2.685818782582   119.30240974   179.85915750
 C      2   1   3     2.308409783556    30.05611224   342.30290785
 C     10   6   5     2.604787609982   121.10085680   180.15386314
 C     13   8   6     2.601786115749   120.94783968     0.00000000
 H      4   3   2     2.069340213360    87.43092546   291.54963707
 H      4   3   2     2.066463583839    88.02605594   184.08541443
 H      7   3   2     2.062801364054   109.16234895   136.42463165
 H      9   5   4     2.053302347098   118.99798238   357.71173970
 H     10   6   5     2.049181802069   119.64460165     0.38431261
 H     11   8   6     2.053279714208   118.72169299   179.92998131
 H     12  11   8     2.052120592660   120.39204229   180.08386665
 H     13   8   6     2.053626585965   118.43858586   180.00176837
 H     15  10   6     2.052222352882   119.81562449   180.06154464
 H      3   2   1     1.928029427297    61.54224217   185.80413736
 H      3   2   1     1.925981064980    90.45734658    78.66795860
 H     16  13   8     2.052109260309   120.27318520   180.07057977
 H      1   2   3     1.843064138476    81.20967655   195.92269612

---------------------
BASIS SET INFORMATION
---------------------
There are 4 groups of distinct atoms

 Group   1 Type O   : 10s4p1d contracted to 3s2p1d pattern {631/31/1}
 Group   2 Type N   : 10s4p1d contracted to 3s2p1d pattern {631/31/1}
 Group   3 Type C   : 10s4p1d contracted to 3s2p1d pattern {631/31/1}
 Group   4 Type H   : 4s1p contracted to 2s1p pattern {31/1}

Atom   0O    basis set group =>   1
Atom   1O    basis set group =>   1
Atom   2N    basis set group =>   2
Atom   3C    basis set group =>   3
Atom   4C    basis set group =>   3
Atom   5C    basis set group =>   3
Atom   6C    basis set group =>   3
Atom   7C    basis set group =>   3
Atom   8C    basis set group =>   3
Atom   9C    basis set group =>   3
Atom  10C    basis set group =>   3
Atom  11C    basis set group =>   3
Atom  12C    basis set group =>   3
Atom  13C    basis set group =>   3
Atom  14C    basis set group =>   3
Atom  15C    basis set group =>   3
Atom  16H    basis set group =>   4
Atom  17H    basis set group =>   4
Atom  18H    basis set group =>   4
Atom  19H    basis set group =>   4
Atom  20H    basis set group =>   4
Atom  21H    basis set group =>   4
Atom  22H    basis set group =>   4
Atom  23H    basis set group =>   4
Atom  24H    basis set group =>   4
Atom  25H    basis set group =>   4
Atom  26H    basis set group =>   4
Atom  27H    basis set group =>   4
Atom  28H    basis set group =>   4
---------------------------------
AUXILIARY/J BASIS SET INFORMATION
---------------------------------
There are 4 groups of distinct atoms

 Group   1 Type O   : 12s5p4d2f1g contracted to 6s4p3d1f1g pattern {711111/2111/211/2/1}
 Group   2 Type N   : 12s5p4d2f1g contracted to 6s4p3d1f1g pattern {711111/2111/211/2/1}
 Group   3 Type C   : 12s5p4d2f1g contracted to 6s4p3d1f1g pattern {711111/2111/211/2/1}
 Group   4 Type H   : 5s2p1d contracted to 3s1p1d pattern {311/2/1}

Atom   0O    basis set group =>   1
Atom   1O    basis set group =>   1
Atom   2N    basis set group =>   2
Atom   3C    basis set group =>   3
Atom   4C    basis set group =>   3
Atom   5C    basis set group =>   3
Atom   6C    basis set group =>   3
Atom   7C    basis set group =>   3
Atom   8C    basis set group =>   3
Atom   9C    basis set group =>   3
Atom  10C    basis set group =>   3
Atom  11C    basis set group =>   3
Atom  12C    basis set group =>   3
Atom  13C    basis set group =>   3
Atom  14C    basis set group =>   3
Atom  15C    basis set group =>   3
Atom  16H    basis set group =>   4
Atom  17H    basis set group =>   4
Atom  18H    basis set group =>   4
Atom  19H    basis set group =>   4
Atom  20H    basis set group =>   4
Atom  21H    basis set group =>   4
Atom  22H    basis set group =>   4
Atom  23H    basis set group =>   4
Atom  24H    basis set group =>   4
Atom  25H    basis set group =>   4
Atom  26H    basis set group =>   4
Atom  27H    basis set group =>   4
Atom  28H    basis set group =>   4


           ************************************************************
           *        Program running with 2 parallel MPI-processes     *
           *              working on a common directory               *
           ************************************************************
------------------------------------------------------------------------------
                             ORCA STARTUP CALCULATIONS
                           -- RI-GTO INTEGRALS CHOSEN --
------------------------------------------------------------------------------
------------------------------------------------------------------------------
                   ___                                                        
                  /   \      - P O W E R E D   B Y -                         
                 /     \                                                     
                 |  |  |   _    _      __       _____    __    __             
                 |  |  |  | |  | |    /  \     |  _  \  |  |  /  |          
                  \  \/   | |  | |   /    \    | | | |  |  | /  /          
                 / \  \   | |__| |  /  /\  \   | |_| |  |  |/  /          
                |  |  |   |  __  | /  /__\  \  |    /   |      \           
                |  |  |   | |  | | |   __   |  |    \   |  |\   \          
                \     /   | |  | | |  |  |  |  | |\  \  |  | \   \       
                 \___/    |_|  |_| |__|  |__|  |_| \__\ |__|  \__/        
                                                                              
                      - O R C A' S   B I G   F R I E N D -                    
                                      &                                       
                       - I N T E G R A L  F E E D E R -                       
                                                                              
 v1 FN, 2020, v2 2021, v3 2022-2024                                           
------------------------------------------------------------------------------


----------------------
SHARK INTEGRAL PACKAGE
----------------------

Number of atoms                             ...     29
Number of basis functions                   ...    289
Number of shells                            ...    135
Maximum angular momentum                    ...      2
Integral batch strategy                     ... SHARK/LIBINT Hybrid
RI-J (if used) integral strategy            ... SPLIT-RIJ (Revised 2003 algorithm where possible)
Printlevel                                  ...      1
Contraction scheme used                     ... SEGMENTED contraction
Prescreening option                         ... SCHWARTZ
   Thresh                                   ... 2.500e-11
   Tcut                                     ... 2.500e-12
   Tpresel                                  ... 2.500e-12 
Coulomb Range Separation                    ... NOT USED
Exchange Range Separation                   ... NOT USED
Multipole approximations                    ... NOT USED
Finite Nucleus Model                        ... NOT USED
CABS basis                                  ... NOT available
Auxiliary Coulomb fitting basis             ... AVAILABLE
   # of basis functions in Aux-J            ...    927
   # of shells in Aux-J                     ...    305
   Maximum angular momentum in Aux-J        ...      4
Auxiliary J/K fitting basis                 ... NOT available
Auxiliary Correlation fitting basis         ... NOT available
Auxiliary 'external' fitting basis          ... NOT available

Checking pre-screening integrals            ... done (  0.0 sec) Dimension = 135
   => SHARK Basis and OBASIS are compatible. Storing Pre-screening
Shell pair information
Shell pair cut-off parameter TPreSel        ...   2.5e-12
Total number of shell pairs                 ...      9180
Shell pairs after pre-screening             ...      7456
Total number of primitive shell pairs       ...     47040
Primitive shell pairs kept                  ...     23013
          la=0 lb=0:   2246 shell pairs
          la=1 lb=0:   2731 shell pairs
          la=1 lb=1:    868 shell pairs
          la=2 lb=0:    922 shell pairs
          la=2 lb=1:    581 shell pairs
          la=2 lb=2:    108 shell pairs

Checking whether 4 symmetric matrices of dimension 289 fit in memory
:Max Core in MB      =   3000.00
 MB in use           =     13.48
 MB left             =   2986.52
 MB needed           =      1.28
 Data fit in memory  = YES
Calculating RI/J V-Matrix + Cholesky decomp.... done (  0.0 sec)
Calculating Nuclear repulsion               ... done (  0.0 sec) ENN=   1060.045396787056 Eh

Diagonalization of the overlap matrix:
Smallest eigenvalue                        ... 2.777e-04
Time for diagonalization                   ...    0.010 sec
Threshold for overlap eigenvalues          ... 1.000e-07
Number of eigenvalues below threshold      ... 0
Time for construction of square roots      ...    0.003 sec
Total time needed                          ...    0.014 sec

-------------------
DFT GRID GENERATION
-------------------

General Integration Accuracy     IntAcc      ... 4.388
Radial Grid Type                 RadialGrid  ... OptM3 with GC (2021)
Angular Grid (max. ang.)         AngularGrid ... 4 (Lebedev-302)
Angular grid pruning method      GridPruning ... 4 (adaptive)
Weight generation scheme         WeightScheme... mBecke (2022)
Basis function cutoff            BFCut       ... 1.0000e-11
Integration weight cutoff        WCut        ... 1.0000e-14
Partially contracted basis set               ... off
Rotationally invariant grid construction     ... off
Angular grids for H and He will be reduced by one unit

Total number of grid points                  ...   137161
Total number of batches                      ...     2161
Average number of points per batch           ...       63
Average number of grid points per atom       ...     4730

--------------------
COSX GRID GENERATION
--------------------

GRIDX 1
-------
General Integration Accuracy     IntAcc      ... 3.816
Radial Grid Type                 RadialGrid  ... OptM3 with GC (2021)
Angular Grid (max. ang.)         AngularGrid ... 1 (Lebedev-50)
Angular grid pruning method      GridPruning ... 4 (adaptive)
Weight generation scheme         WeightScheme... mBecke (2022)
Basis function cutoff            BFCut       ... 1.0000e-11
Integration weight cutoff        WCut        ... 1.0000e-14
Partially contracted basis set               ... on
Rotationally invariant grid construction     ... off
Angular grids for H and He will be reduced by one unit

Total number of grid points                  ...    17439
Total number of batches                      ...      152
Average number of points per batch           ...      114
Average number of grid points per atom       ...      601
UseSFitting                                  ... on

GRIDX 2
-------
General Integration Accuracy     IntAcc      ... 4.020
Radial Grid Type                 RadialGrid  ... OptM3 with GC (2021)
Angular Grid (max. ang.)         AngularGrid ... 2 (Lebedev-110)
Angular grid pruning method      GridPruning ... 4 (adaptive)
Weight generation scheme         WeightScheme... mBecke (2022)
Basis function cutoff            BFCut       ... 1.0000e-11
Integration weight cutoff        WCut        ... 1.0000e-14
Partially contracted basis set               ... on
Rotationally invariant grid construction     ... off
Angular grids for H and He will be reduced by one unit

Total number of grid points                  ...    37842
Total number of batches                      ...      309
Average number of points per batch           ...      122
Average number of grid points per atom       ...     1305
UseSFitting                                  ... on

GRIDX 3
-------
General Integration Accuracy     IntAcc      ... 4.338
Radial Grid Type                 RadialGrid  ... OptM3 with GC (2021)
Angular Grid (max. ang.)         AngularGrid ... 3 (Lebedev-194)
Angular grid pruning method      GridPruning ... 4 (adaptive)
Weight generation scheme         WeightScheme... mBecke (2022)
Basis function cutoff            BFCut       ... 1.0000e-11
Integration weight cutoff        WCut        ... 1.0000e-14
Partially contracted basis set               ... on
Rotationally invariant grid construction     ... off
Angular grids for H and He will be reduced by one unit

Total number of grid points                  ...    82843
Total number of batches                      ...      660
Average number of points per batch           ...      125
Average number of grid points per atom       ...     2857
UseSFitting                                  ... on
Grids setup in   3.0 sec
Initializing property integral containers    ... done (  0.0 sec)

SHARK setup successfully completed in   3.2 seconds

Maximum memory used throughout the entire STARTUP-calculation: 47.9 MB


           ************************************************************
           *        Program running with 2 parallel MPI-processes     *
           *              working on a common directory               *
           ************************************************************
-------------------------------------------------------------------------------
                                 ORCA GUESS
                   Start orbitals & Density for SCF / CASSCF
-------------------------------------------------------------------------------

------------
SCF SETTINGS
------------
Hamiltonian:
 Density Functional     Method          .... DFT(GTOs)
 Exchange Functional    Exchange        .... B88
   X-Alpha parameter    XAlpha          ....  0.666667
   Becke's b parameter  XBeta           ....  0.004200
 Correlation Functional Correlation     .... LYP
 LDA part of GGA corr.  LDAOpt          .... VWN-5
 Gradients option       PostSCFGGA      .... off
 Hybrid DFT is turned on
   Fraction HF Exchange ScalHFX         ....  0.200000
   Scaling of DF-GGA-X  ScalDFX         ....  0.720000
   Scaling of DF-GGA-C  ScalDFC         ....  0.810000
   Scaling of DF-LDA-C  ScalLDAC        ....  1.000000
   Perturbative correction              ....  0.000000
   NL short-range parameter             ....  4.800000
 RI-approximation to the Coulomb term is turned on
   Number of AuxJ basis functions       .... 927
   RIJ-COSX (HFX calculated with COS-X)).... on


General Settings:
 Integral files         IntName         .... /kaggle/working/Nal-2/Nal_InterFrag
 Hartree-Fock type      HFTyp           .... RHF
 Total Charge           Charge          ....    0
 Multiplicity           Mult            ....    1
 Number of Electrons    NEL             ....  114
 Basis Dimension        Dim             ....  289
 Nuclear Repulsion      ENuc            ....   1060.0453967871 Eh

Convergence Acceleration:
 AO-DIIS                CNVDIIS         .... on
   Start iteration      DIISMaxIt       ....    12
   Startup error        DIISStart       ....  0.200000
   # of expansion vecs  DIISMaxEq       ....     5
   Bias factor          DIISBfac        ....   1.050
   Max. coefficient     DIISMaxC        ....  10.000
 MO-DIIS                CNVKDIIS        .... off
 Trust-Rad. Augm. Hess. CNVTRAH         .... auto
   Auto Start mean grad. ratio tolernc. ....  1.125000
   Auto Start start iteration           ....    50
   Auto Start num. interpolation iter.  ....    10
   Max. Number of Micro iterations      ....    24
   Max. Number of Macro iterations      .... Maxiter - #DIIS iter
   Number of Davidson start vectors     ....     2
   Converg. threshold    (grad. norm)   ....   1.000e-05
   Grad. Scal. Fac. for Micro threshold ....   0.100
   Minimum threshold for Micro iter.    ....   1.000e-02
   NR start threshold (gradient norm)   ....   1.000e-04
   Initial trust radius                 ....   0.400
   Minimum AH scaling param. (alpha)    ....   1.000
   Maximum AH scaling param. (alpha)    .... 1000.000
   Quad. conv. algorithm                .... NR
   White noise on init. David. guess    .... on
   Maximum white noise                  ....   0.010
   Pseudo random numbers                .... off
   Inactive MOs                         .... canonical
   Orbital update algorithm             .... Taylor
   Preconditioner                       .... Diag
   Full preconditioner red. dimension   ....   250
 SOSCF                 CNVSOSCF           .... on
   Start iteration     SOSCFMaxIt         ....   150
   Startup grad/error  SOSCFStart         ....  0.003300
   Hessian update      SOSCFHessUp        .... L-BFGS
   Autom. constraints  SOSCFAutoConstrain .... off
 Level Shifting         CNVShift        .... on
   Level shift para.    LevelShift      ....    0.2500
   Turn off err/grad.   ShiftErr        ....    0.0010
 Zerner damping         CNVZerner       .... off
 Static damping         CNVDamp         .... on
   Fraction old density DampFac         ....    0.7000
   Max. Damping (<1)    DampMax         ....    0.9800
   Min. Damping (>=0)   DampMin         ....    0.0000
   Turn off err/grad.   DampErr         ....    0.1000

SCF Procedure:
 Maximum # iterations   MaxIter         ....   125
 SCF integral mode      SCFMode         .... Direct
   Integral package                     .... SHARK and LIBINT hybrid scheme
 Reset frequency        DirectResetFreq ....    20
 Integral Threshold     Thresh          ....  2.500e-11 Eh
 Primitive CutOff       TCut            ....  2.500e-12 Eh

Convergence Tolerance:
 Convergence Check Mode ConvCheckMode   .... Total+1el-Energy
 Convergence forced     ConvForced      .... 0
 Energy Change          TolE            ....  1.000e-08 Eh
 1-El. energy change                    ....  1.000e-05 Eh
 Orbital Gradient       TolG            ....  1.000e-05
 Orbital Rotation angle TolX            ....  1.000e-05
 DIIS Error             TolErr          ....  5.000e-07

------------------------------
INITIAL GUESS: MODEL POTENTIAL
------------------------------
Loading Hartree-Fock densities                     ... done
Calculating cut-offs                               ... done
Initializing the effective Hamiltonian             ... done
Setting up the integral package (SHARK)            ... done
Starting the Coulomb interaction                   ... done (   0.3 sec)
Making the grid                                    ... done (   0.4 sec)
Mapping shells                                     ... done
Starting the XC term evaluation                    ... done (   0.3 sec)
  promolecular density results
     # of electrons  =    113.993417949
     EX              =    -93.683720182
     EC              =     -3.871768481
     EX+EC           =    -97.555488663
Transforming the Hamiltonian                       ... done (   0.0 sec)
Diagonalizing the Hamiltonian                      ... done (   0.0 sec)
Back transforming the eigenvectors                 ... done (   0.0 sec)
Now organizing SCF variables                       ... done
                      ------------------
                      INITIAL GUESS DONE (   1.0 sec)
                      ------------------
             **** ENERGY FILE WAS UPDATED (/kaggle/working/Nal-2/Nal_InterFrag.en.tmp) ****
Finished Guess after   1.4 sec
Maximum memory used throughout the entire GUESS-calculation: 19.4 MB


           ************************************************************
           *        Program running with 2 parallel MPI-processes     *
           *              working on a common directory               *
           ************************************************************

-------------------------------------------------------------------------------------------
                                      ORCA LEAN-SCF
                              memory conserving SCF solver
-------------------------------------------------------------------------------------------

----------------------------------------D-I-I-S--------------------------------------------
Iteration    Energy (Eh)           Delta-E    RMSDP     MaxDP     DIISErr   Damp  Time(sec)
-------------------------------------------------------------------------------------------
               ***  Starting incremental Fock matrix formation  ***
    1    -707.5897712262569712     0.00e+00  3.55e-03  8.97e-02  2.68e-01  0.700   9.6
    2    -707.7888573681379967    -1.99e-01  2.44e-03  4.88e-02  1.12e-01  0.700   4.8
                               ***Turning on AO-DIIS***
    3    -707.8681845760952456    -7.93e-02  1.09e-03  1.51e-02  3.48e-02  0.700   4.6
    4    -707.9160685843739884    -4.79e-02  1.95e-03  2.52e-02  1.69e-02  0.000   4.5
    5    -708.0204073647191763    -1.04e-01  3.43e-04  7.57e-03  6.39e-03  0.000   4.6
                              *** Initializing SOSCF ***
---------------------------------------S-O-S-C-F--------------------------------------
Iteration    Energy (Eh)           Delta-E    RMSDP     MaxDP     MaxGrad    Time(sec)
--------------------------------------------------------------------------------------
    6    -708.0210437237890346    -6.36e-04  1.11e-04  2.12e-03  2.27e-03     4.2
               *** Restarting incremental Fock matrix formation ***
    7    -708.0211144159202377    -7.07e-05  7.65e-05  1.94e-03  4.73e-04     9.6
    8    -708.0211080125579883     6.40e-06  3.46e-05  1.32e-03  1.16e-03     6.5
    9    -708.0211198421898189    -1.18e-05  2.03e-05  3.66e-04  1.48e-04     5.7
   10    -708.0211194736543803     3.69e-07  1.12e-05  1.93e-04  1.38e-04     5.5
   11    -708.0211203615317572    -8.88e-07  4.27e-06  8.83e-05  2.02e-05     5.3
   12    -708.0211203406884124     2.08e-08  2.65e-06  6.63e-05  3.94e-05     4.5
   13    -708.0211203771234523    -3.64e-08  1.04e-06  2.16e-05  7.60e-06     4.2
   14    -708.0211203682313226     8.89e-09  6.64e-07  1.50e-05  1.08e-05     3.6
                 **** Energy Check signals convergence ****

               *****************************************************
               *                     SUCCESS                       *
               *           SCF CONVERGED AFTER  14 CYCLES          *
               *****************************************************

Recomputing exchange energy using gridx3       ... done (   16.127 sec)
Old exchange energy                            :    -19.041821453 Eh
New exchange energy                            :    -19.041831642 Eh
Exchange energy change after final integration :     -0.000010188 Eh
Total energy after final integration           :   -708.021130571 Eh
             **** ENERGY FILE WAS UPDATED (/kaggle/working/Nal-2/Nal_InterFrag.en.tmp) ****

----------------
TOTAL SCF ENERGY
----------------

Total Energy       :       -708.02113057058432 Eh          -19266.23444 eV

Components:
Nuclear Repulsion  :       1060.04539678705555 Eh           28845.30171 eV
Electronic Energy  :      -1768.06651716927149 Eh          -48111.53588 eV
One Electron Energy:      -3066.15315291198658 Eh          -83434.26901 eV
Two Electron Energy:       1298.08663574271509 Eh           35322.73313 eV

Virial components:
Potential Energy   :      -1411.69895253355980 Eh          -38414.28144 eV
Kinetic Energy     :        703.67782196297549 Eh           19148.04700 eV
Virial Ratio       :          2.00617229713947

DFT components:
N(Alpha)           :       57.000034482973 electrons
N(Beta)            :       57.000034482973 electrons
N(Total)           :      114.000068965946 electrons
E(X)               :      -75.621947280110 Eh       
E(C)               :       -4.564636378870 Eh       
E(XC)              :      -80.186583658980 Eh       

---------------
SCF CONVERGENCE
---------------

  Last Energy change         ...   -8.8921e-09  Tolerance :   1.0000e-08
  Last MAX-Density change    ...    1.5025e-05  Tolerance :   1.0000e-07
  Last RMS-Density change    ...    6.6410e-07  Tolerance :   5.0000e-09
  Last DIIS Error            ...    2.2741e-03  Tolerance :   5.0000e-07
  Last Orbital Gradient      ...    1.0753e-05  Tolerance :   1.0000e-05
  Last Orbital Rotation      ...    1.9791e-05  Tolerance :   1.0000e-05


----------------
ORBITAL ENERGIES
----------------

  NO   OCC          E(Eh)            E(eV) 
   0   2.0000     -19.191776      -522.2348 
   1   2.0000     -19.132310      -520.6166 
   2   2.0000     -14.315486      -389.5442 
   3   2.0000     -10.309172      -280.5268 
   4   2.0000     -10.222210      -278.1605 
   5   2.0000     -10.189627      -277.2738 
   6   2.0000     -10.189308      -277.2652 
   7   2.0000     -10.188648      -277.2472 
   8   2.0000     -10.186854      -277.1984 
   9   2.0000     -10.183091      -277.0960 
  10   2.0000     -10.182664      -277.0844 
  11   2.0000     -10.182114      -277.0694 
  12   2.0000     -10.181945      -277.0648 
  13   2.0000     -10.181804      -277.0610 
  14   2.0000     -10.181037      -277.0401 
  15   2.0000     -10.179651      -277.0024 
  16   2.0000      -1.101605       -29.9762 
  17   2.0000      -1.008306       -27.4374 
  18   2.0000      -0.894397       -24.3378 
  19   2.0000      -0.868118       -23.6227 
  20   2.0000      -0.817846       -22.2547 
  21   2.0000      -0.787319       -21.4241 
  22   2.0000      -0.742344       -20.2002 
  23   2.0000      -0.734453       -19.9855 
  24   2.0000      -0.709382       -19.3033 
  25   2.0000      -0.666228       -18.1290 
  26   2.0000      -0.617647       -16.8070 
  27   2.0000      -0.608410       -16.5557 
  28   2.0000      -0.590862       -16.0782 
  29   2.0000      -0.565758       -15.3951 
  30   2.0000      -0.518540       -14.1102 
  31   2.0000      -0.505445       -13.7539 
  32   2.0000      -0.504765       -13.7354 
  33   2.0000      -0.486844       -13.2477 
  34   2.0000      -0.476378       -12.9629 
  35   2.0000      -0.471908       -12.8413 
  36   2.0000      -0.455200       -12.3866 
  37   2.0000      -0.444819       -12.1041 
  38   2.0000      -0.430714       -11.7203 
  39   2.0000      -0.416145       -11.3239 
  40   2.0000      -0.413333       -11.2474 
  41   2.0000      -0.403334       -10.9753 
  42   2.0000      -0.393088       -10.6965 
  43   2.0000      -0.390527       -10.6268 
  44   2.0000      -0.386307       -10.5119 
  45   2.0000      -0.367504       -10.0003 
  46   2.0000      -0.365944        -9.9578 
  47   2.0000      -0.354221        -9.6389 
  48   2.0000      -0.330019        -8.9803 
  49   2.0000      -0.322333        -8.7711 
  50   2.0000      -0.319413        -8.6917 
  51   2.0000      -0.313322        -8.5259 
  52   2.0000      -0.276993        -7.5374 
  53   2.0000      -0.274369        -7.4660 
  54   2.0000      -0.245453        -6.6791 
  55   2.0000      -0.238693        -6.4952 
  56   2.0000      -0.209546        -5.7020 
  57   0.0000      -0.035849        -0.9755 
  58   0.0000      -0.006178        -0.1681 
  59   0.0000       0.009234         0.2513 
  60   0.0000       0.034548         0.9401 
  61   0.0000       0.079613         2.1664 
  62   0.0000       0.090719         2.4686 
  63   0.0000       0.095607         2.6016 
  64   0.0000       0.102134         2.7792 
  65   0.0000       0.112571         3.0632 
  66   0.0000       0.126573         3.4442 
  67   0.0000       0.136831         3.7234 
  68   0.0000       0.153464         4.1760 
  69   0.0000       0.167377         4.5546 
  70   0.0000       0.175513         4.7759 
  71   0.0000       0.181913         4.9501 
  72   0.0000       0.190485         5.1834 
  73   0.0000       0.194013         5.2794 
  74   0.0000       0.198822         5.4102 
  75   0.0000       0.215157         5.8547 
  76   0.0000       0.239000         6.5035 
  77   0.0000       0.249410         6.7868 
  78   0.0000       0.254143         6.9156 
  79   0.0000       0.257637         7.0107 
  80   0.0000       0.264550         7.1988 
  81   0.0000       0.295265         8.0346 
  82   0.0000       0.314627         8.5614 
  83   0.0000       0.317994         8.6531 
  84   0.0000       0.329646         8.9701 
  85   0.0000       0.337019         9.1707 
  86   0.0000       0.361349         9.8328 
  87   0.0000       0.372976        10.1492 
  88   0.0000       0.391965        10.6659 
  89   0.0000       0.465313        12.6618 
  90   0.0000       0.491252        13.3677 
  91   0.0000       0.496172        13.5015 
  92   0.0000       0.515999        14.0411 
  93   0.0000       0.519185        14.1277 
  94   0.0000       0.527182        14.3454 
  95   0.0000       0.535176        14.5629 
  96   0.0000       0.543871        14.7995 
  97   0.0000       0.555071        15.1043 
  98   0.0000       0.568287        15.4639 
  99   0.0000       0.576040        15.6748 
 100   0.0000       0.579994        15.7824 
 101   0.0000       0.587452        15.9854 
 102   0.0000       0.601188        16.3592 
 103   0.0000       0.602558        16.3964 
 104   0.0000       0.614067        16.7096 
 105   0.0000       0.617620        16.8063 
 106   0.0000       0.620335        16.8802 
 107   0.0000       0.629091        17.1184 
 108   0.0000       0.633139        17.2286 
 109   0.0000       0.637899        17.3581 
 110   0.0000       0.650841        17.7103 
 111   0.0000       0.654932        17.8216 
 112   0.0000       0.661785        18.0081 
 113   0.0000       0.671611        18.2755 
 114   0.0000       0.697946        18.9921 
 115   0.0000       0.702971        19.1288 
 116   0.0000       0.721397        19.6302 
 117   0.0000       0.727778        19.8039 
 118   0.0000       0.735732        20.0203 
 119   0.0000       0.755037        20.5456 
 120   0.0000       0.772215        21.0130 
 121   0.0000       0.788972        21.4690 
 122   0.0000       0.799750        21.7623 
 123   0.0000       0.812316        22.1042 
 124   0.0000       0.814114        22.1532 
 125   0.0000       0.823719        22.4145 
 126   0.0000       0.831552        22.6277 
 127   0.0000       0.837922        22.8010 
 128   0.0000       0.842595        22.9282 
 129   0.0000       0.851363        23.1668 
 130   0.0000       0.866291        23.5730 
 131   0.0000       0.874790        23.8042 
 132   0.0000       0.891948        24.2711 
 133   0.0000       0.903023        24.5725 
 134   0.0000       0.911741        24.8097 
 135   0.0000       0.928205        25.2577 
 136   0.0000       0.935436        25.4545 
 137   0.0000       0.940980        25.6054 
 138   0.0000       0.949524        25.8379 
 139   0.0000       0.963976        26.2311 
 140   0.0000       0.977511        26.5994 
 141   0.0000       0.982778        26.7428 
 142   0.0000       0.994664        27.0662 
 143   0.0000       1.004926        27.3454 
 144   0.0000       1.016105        27.6496 
 145   0.0000       1.048028        28.5183 
 146   0.0000       1.057900        28.7869 
 147   0.0000       1.066484        29.0205 
 148   0.0000       1.072187        29.1757 
 149   0.0000       1.096798        29.8454 
 150   0.0000       1.111779        30.2530 
 151   0.0000       1.124967        30.6119 
 152   0.0000       1.155574        31.4448 
 153   0.0000       1.173335        31.9281 
 154   0.0000       1.193545        32.4780 
 155   0.0000       1.211931        32.9783 
 156   0.0000       1.217832        33.1389 
 157   0.0000       1.250799        34.0360 
 158   0.0000       1.265171        34.4270 
 159   0.0000       1.291337        35.1391 
 160   0.0000       1.316843        35.8331 
 161   0.0000       1.341276        36.4980 
 162   0.0000       1.349520        36.7223 
 163   0.0000       1.361254        37.0416 
 164   0.0000       1.362958        37.0880 
 165   0.0000       1.395835        37.9826 
 166   0.0000       1.410754        38.3886 
 167   0.0000       1.418630        38.6029 
 168   0.0000       1.424097        38.7516 
 169   0.0000       1.438495        39.1434 
 170   0.0000       1.444239        39.2997 
 171   0.0000       1.449746        39.4496 
 172   0.0000       1.470344        40.0101 
 173   0.0000       1.490851        40.5681 
 174   0.0000       1.503597        40.9150 
 175   0.0000       1.514236        41.2044 
 176   0.0000       1.540411        41.9167 
 177   0.0000       1.592071        43.3225 
 178   0.0000       1.603120        43.6231 
 179   0.0000       1.659611        45.1603 
 180   0.0000       1.708701        46.4961 
 181   0.0000       1.732162        47.1345 
 182   0.0000       1.752042        47.6755 
 183   0.0000       1.758491        47.8510 
 184   0.0000       1.762968        47.9728 
 185   0.0000       1.779610        48.4257 
 186   0.0000       1.803360        49.0719 
 187   0.0000       1.816010        49.4161 
 188   0.0000       1.821852        49.5751 
 189   0.0000       1.850080        50.3432 
 190   0.0000       1.861889        50.6646 
 191   0.0000       1.867258        50.8107 
 192   0.0000       1.885126        51.2969 
 193   0.0000       1.892901        51.5085 
 194   0.0000       1.898887        51.6713 
 195   0.0000       1.907982        51.9188 
 196   0.0000       1.923477        52.3405 
 197   0.0000       1.930692        52.5368 
 198   0.0000       1.935402        52.6650 
 199   0.0000       1.954439        53.1830 
 200   0.0000       1.969058        53.5808 
 201   0.0000       1.976711        53.7890 
 202   0.0000       1.989363        54.1333 
 203   0.0000       2.000713        54.4422 
 204   0.0000       2.004136        54.5353 
 205   0.0000       2.015439        54.8429 
 206   0.0000       2.033897        55.3451 
 207   0.0000       2.051602        55.8269 
 208   0.0000       2.067370        56.2560 
 209   0.0000       2.080930        56.6250 
 210   0.0000       2.092106        56.9291 
 211   0.0000       2.110264        57.4232 
 212   0.0000       2.140942        58.2580 
 213   0.0000       2.166424        58.9514 
 214   0.0000       2.193162        59.6790 
 215   0.0000       2.217788        60.3491 
 216   0.0000       2.245293        61.0975 
 217   0.0000       2.251625        61.2698 
 218   0.0000       2.257303        61.4243 
 219   0.0000       2.267016        61.6886 
 220   0.0000       2.285458        62.1905 
 221   0.0000       2.294924        62.4481 
 222   0.0000       2.301041        62.6145 
 223   0.0000       2.306942        62.7751 
 224   0.0000       2.322183        63.1898 
 225   0.0000       2.332644        63.4745 
 226   0.0000       2.351785        63.9953 
 227   0.0000       2.363915        64.3254 
 228   0.0000       2.383559        64.8599 
 229   0.0000       2.393010        65.1171 
 230   0.0000       2.403448        65.4011 
 231   0.0000       2.408539        65.5397 
 232   0.0000       2.421467        65.8915 
 233   0.0000       2.442427        66.4618 
 234   0.0000       2.457897        66.8828 
 235   0.0000       2.463573        67.0372 
 236   0.0000       2.484788        67.6145 
 237   0.0000       2.501152        68.0598 
 238   0.0000       2.510286        68.3083 
 239   0.0000       2.521435        68.6117 
 240   0.0000       2.528074        68.7924 
 241   0.0000       2.540824        69.1393 
 242   0.0000       2.560965        69.6874 
 243   0.0000       2.585709        70.3607 
 244   0.0000       2.593697        70.5781 
 245   0.0000       2.600663        70.7676 
 246   0.0000       2.607754        70.9606 
 247   0.0000       2.621829        71.3436 
 248   0.0000       2.634799        71.6965 
 249   0.0000       2.641955        71.8913 
 250   0.0000       2.647240        72.0351 
 251   0.0000       2.671808        72.7036 
 252   0.0000       2.696180        73.3668 
 253   0.0000       2.701836        73.5207 
 254   0.0000       2.720920        74.0400 
 255   0.0000       2.733670        74.3870 
 256   0.0000       2.742787        74.6350 
 257   0.0000       2.755779        74.9886 
 258   0.0000       2.780865        75.6712 
 259   0.0000       2.793318        76.0100 
 260   0.0000       2.830382        77.0186 
 261   0.0000       2.838802        77.2477 
 262   0.0000       2.895099        78.7796 
 263   0.0000       2.897949        78.8572 
 264   0.0000       2.907979        79.1301 
 265   0.0000       2.940939        80.0270 
 266   0.0000       2.987438        81.2923 
 267   0.0000       3.024980        82.3139 
 268   0.0000       3.048715        82.9597 
 269   0.0000       3.066409        83.4412 
 270   0.0000       3.103804        84.4588 
 271   0.0000       3.171181        86.2922 
 272   0.0000       3.177014        86.4509 
 273   0.0000       3.195710        86.9597 
 274   0.0000       3.244511        88.2876 
 275   0.0000       3.251393        88.4749 
 276   0.0000       3.266810        88.8944 
 277   0.0000       3.296280        89.6963 
 278   0.0000       3.331124        90.6445 
 279   0.0000       3.363970        91.5383 
 280   0.0000       3.382258        92.0359 
 281   0.0000       3.399442        92.5035 
 282   0.0000       3.422627        93.1344 
 283   0.0000       3.452727        93.9535 
 284   0.0000       3.495579        95.1196 
 285   0.0000       3.509519        95.4989 
 286   0.0000       3.569468        97.1302 
 287   0.0000       3.803593       103.5010 
 288   0.0000       3.893496       105.9474 

                    ********************************
                    * MULLIKEN POPULATION ANALYSIS *
                    ********************************

-----------------------
MULLIKEN ATOMIC CHARGES
-----------------------
   0 O :   -0.461594
   1 O :   -0.449183
   2 N :   -0.557564
   3 C :   -0.239764
   4 C :    0.064718
   5 C :    0.077998
   6 C :   -0.013214
   7 C :    0.106642
   8 C :   -0.138928
   9 C :   -0.136280
  10 C :   -0.128907
  11 C :   -0.087940
  12 C :   -0.132451
  13 C :    0.516909
  14 C :   -0.093699
  15 C :   -0.085961
  16 H :    0.108496
  17 H :    0.124153
  18 H :    0.121185
  19 H :    0.091204
  20 H :    0.088741
  21 H :    0.081641
  22 H :    0.084645
  23 H :    0.082896
  24 H :    0.084586
  25 H :    0.246605
  26 H :    0.237926
  27 H :    0.084255
  28 H :    0.322887
Sum of atomic charges:    0.0000000

--------------------------------
MULLIKEN REDUCED ORBITAL CHARGES
--------------------------------
  0 O s       :     3.822874  s :     3.822874
      pz      :     1.428352  p :     4.615329
      px      :     1.670271
      py      :     1.516706
      dz2     :     0.004526  d :     0.023391
      dxz     :     0.006550
      dyz     :     0.003595
      dx2y2   :     0.004125
      dxy     :     0.004596

  1 O s       :     3.856981  s :     3.856981
      pz      :     1.655285  p :     4.564727
      px      :     1.394861
      py      :     1.514582
      dz2     :     0.003208  d :     0.027475
      dxz     :     0.004966
      dyz     :     0.003627
      dx2y2   :     0.008708
      dxy     :     0.006966

  2 N s       :     3.605864  s :     3.605864
      pz      :     1.326361  p :     3.921309
      px      :     1.152772
      py      :     1.442177
      dz2     :     0.004360  d :     0.030392
      dxz     :     0.009118
      dyz     :     0.004699
      dx2y2   :     0.002428
      dxy     :     0.009787

  3 C s       :     3.240103  s :     3.240103
      pz      :     0.961715  p :     2.962116
      px      :     0.977662
      py      :     1.022739
      dz2     :     0.003925  d :     0.037545
      dxz     :     0.009910
      dyz     :     0.009615
      dx2y2   :     0.004640
      dxy     :     0.009455

  4 C s       :     3.153646  s :     3.153646
      pz      :     0.949358  p :     2.741031
      px      :     0.912533
      py      :     0.879141
      dz2     :     0.003818  d :     0.040605
      dxz     :     0.005548
      dyz     :     0.007273
      dx2y2   :     0.011832
      dxy     :     0.012133

  5 C s       :     3.153199  s :     3.153199
      pz      :     0.953761  p :     2.728639
      px      :     0.915315
      py      :     0.859564
      dz2     :     0.004302  d :     0.040164
      dxz     :     0.005486
      dyz     :     0.007049
      dx2y2   :     0.011153
      dxy     :     0.012173

  6 C s       :     3.188431  s :     3.188431
      pz      :     0.980804  p :     2.767262
      px      :     0.899709
      py      :     0.886749
      dz2     :     0.005628  d :     0.057521
      dxz     :     0.012354
      dyz     :     0.015345
      dx2y2   :     0.010703
      dxy     :     0.013491

  7 C s       :     3.146983  s :     3.146983
      pz      :     0.950045  p :     2.705545
      px      :     0.890519
      py      :     0.864980
      dz2     :     0.004394  d :     0.040830
      dxz     :     0.005564
      dyz     :     0.007180
      dx2y2   :     0.011479
      dxy     :     0.012213

  8 C s       :     3.190981  s :     3.190981
      pz      :     1.000464  p :     2.913004
      px      :     0.958556
      py      :     0.953984
      dz2     :     0.002848  d :     0.034944
      dxz     :     0.003895
      dyz     :     0.006919
      dx2y2   :     0.010615
      dxy     :     0.010667

  9 C s       :     3.176777  s :     3.176777
      pz      :     0.995105  p :     2.924861
      px      :     0.951862
      py      :     0.977894
      dz2     :     0.003740  d :     0.034642
      dxz     :     0.004382
      dyz     :     0.005479
      dx2y2   :     0.009378
      dxy     :     0.011664

 10 C s       :     3.180115  s :     3.180115
      pz      :     0.989893  p :     2.913947
      px      :     0.956470
      py      :     0.967584
      dz2     :     0.003742  d :     0.034845
      dxz     :     0.004495
      dyz     :     0.005446
      dx2y2   :     0.009690
      dxy     :     0.011472

 11 C s       :     3.179539  s :     3.179539
      pz      :     0.980499  p :     2.873353
      px      :     0.940809
      py      :     0.952045
      dz2     :     0.004427  d :     0.035048
      dxz     :     0.005808
      dyz     :     0.003656
      dx2y2   :     0.011623
      dxy     :     0.009535

 12 C s       :     3.182363  s :     3.182363
      pz      :     0.990473  p :     2.915317
      px      :     0.976092
      py      :     0.948752
      dz2     :     0.003292  d :     0.034771
      dxz     :     0.004099
      dyz     :     0.006304
      dx2y2   :     0.008974
      dxy     :     0.012101

 13 C s       :     2.998111  s :     2.998111
      pz      :     0.747605  p :     2.363116
      px      :     0.766126
      py      :     0.849385
      dz2     :     0.025565  d :     0.121864
      dxz     :     0.031978
      dyz     :     0.018341
      dx2y2   :     0.024259
      dxy     :     0.021720

 14 C s       :     3.181783  s :     3.181783
      pz      :     0.982608  p :     2.876929
      px      :     0.942354
      py      :     0.951967
      dz2     :     0.004398  d :     0.034988
      dxz     :     0.005750
      dyz     :     0.003637
      dx2y2   :     0.011723
      dxy     :     0.009480

 15 C s       :     3.177586  s :     3.177586
      pz      :     0.984010  p :     2.873462
      px      :     0.950517
      py      :     0.938934
      dz2     :     0.002825  d :     0.034914
      dxz     :     0.003987
      dyz     :     0.006867
      dx2y2   :     0.010454
      dxy     :     0.010781

 16 H s       :     0.880012  s :     0.880012
      pz      :     0.004059  p :     0.011493
      px      :     0.004075
      py      :     0.003359

 17 H s       :     0.864260  s :     0.864260
      pz      :     0.003602  p :     0.011587
      px      :     0.002671
      py      :     0.005315

 18 H s       :     0.867834  s :     0.867834
      pz      :     0.003982  p :     0.010981
      px      :     0.003760
      py      :     0.003239

 19 H s       :     0.896504  s :     0.896504
      pz      :     0.003410  p :     0.012292
      px      :     0.006337
      py      :     0.002545

 20 H s       :     0.898715  s :     0.898715
      pz      :     0.003252  p :     0.012544
      px      :     0.004763
      py      :     0.004530

 21 H s       :     0.906072  s :     0.906072
      pz      :     0.003121  p :     0.012287
      px      :     0.004875
      py      :     0.004291

 22 H s       :     0.903063  s :     0.903063
      pz      :     0.002653  p :     0.012292
      px      :     0.002208
      py      :     0.007431

 23 H s       :     0.904825  s :     0.904825
      pz      :     0.003086  p :     0.012279
      px      :     0.004819
      py      :     0.004374

 24 H s       :     0.903129  s :     0.903129
      pz      :     0.002651  p :     0.012286
      px      :     0.002216
      py      :     0.007418

 25 H s       :     0.729744  s :     0.729744
      pz      :     0.007834  p :     0.023651
      px      :     0.007696
      py      :     0.008120

 26 H s       :     0.738407  s :     0.738407
      pz      :     0.009426  p :     0.023667
      px      :     0.006438
      py      :     0.007803

 27 H s       :     0.903456  s :     0.903456
      pz      :     0.003462  p :     0.012289
      px      :     0.006299
      py      :     0.002528

 28 H s       :     0.639607  s :     0.639607
      pz      :     0.010137  p :     0.037507
      px      :     0.009596
      py      :     0.017774


------------------------
MULLIKEN OVERLAP CHARGES
------------------------
B(  0-O ,  1-O ) :  -0.1671 B(  0-O ,  6-C ) :  -0.1464 B(  0-O , 13-C ) :   0.5432 
B(  0-O , 28-H ) :   0.5419 B(  1-O ,  6-C ) :  -0.1594 B(  1-O , 13-C ) :   1.2146 
B(  2-N ,  3-C ) :  -0.0951 B(  2-N ,  6-C ) :   0.6866 B(  2-N , 13-C ) :  -0.1036 
B(  2-N , 18-H ) :  -0.0756 B(  2-N , 25-H ) :   0.6766 B(  2-N , 26-H ) :   0.6823 
B(  3-C ,  4-C ) :   0.6651 B(  3-C ,  5-C ) :  -0.1094 B(  3-C ,  6-C ) :   0.6717 
B(  3-C ,  8-C ) :  -0.1266 B(  3-C , 13-C ) :  -0.0924 B(  3-C , 16-H ) :   0.7430 
B(  3-C , 17-H ) :   0.7214 B(  3-C , 18-H ) :  -0.0577 B(  4-C ,  5-C ) :   0.8454 
B(  4-C ,  6-C ) :  -0.0707 B(  4-C ,  8-C ) :   1.0275 B(  4-C ,  9-C ) :  -0.1854 
B(  4-C , 10-C ) :  -0.1240 B(  4-C , 16-H ) :  -0.0651 B(  4-C , 19-H ) :  -0.0746 
B(  5-C ,  7-C ) :   0.9407 B(  5-C ,  9-C ) :   0.8901 B(  5-C , 10-C ) :  -0.0672 
B(  5-C , 11-C ) :  -0.0916 B(  5-C , 12-C ) :  -0.0517 B(  5-C , 15-C ) :  -0.0763 
B(  5-C , 20-H ) :  -0.0724 B(  6-C , 13-C ) :   0.5805 B(  6-C , 16-H ) :  -0.0707 
B(  6-C , 17-H ) :  -0.0762 B(  6-C , 18-H ) :   0.7259 B(  6-C , 25-H ) :  -0.0887 
B(  6-C , 26-H ) :  -0.0866 B(  7-C ,  8-C ) :  -0.1052 B(  7-C ,  9-C ) :  -0.1012 
B(  7-C , 10-C ) :   0.8970 B(  7-C , 12-C ) :   0.9061 B(  7-C , 14-C ) :  -0.0727 
B(  7-C , 21-H ) :  -0.0807 B(  7-C , 23-H ) :  -0.0808 B(  8-C , 11-C ) :   0.9272 
B(  8-C , 19-H ) :   0.7270 B(  8-C , 22-H ) :  -0.0709 B(  9-C , 12-C ) :  -0.1320 
B(  9-C , 14-C ) :   1.0520 B(  9-C , 20-H ) :   0.7260 B(  9-C , 24-H ) :  -0.0684 
B( 10-C , 11-C ) :   1.0318 B( 10-C , 12-C ) :  -0.1631 B( 10-C , 21-H ) :   0.7274 
B( 10-C , 22-H ) :  -0.0684 B( 11-C , 19-H ) :  -0.0797 B( 11-C , 21-H ) :  -0.0851 
B( 11-C , 22-H ) :   0.7233 B( 12-C , 15-C ) :   1.0367 B( 12-C , 23-H ) :   0.7279 
B( 12-C , 27-H ) :  -0.0699 B( 13-C , 18-H ) :  -0.0890 B( 14-C , 15-C ) :   1.0041 
B( 14-C , 20-H ) :  -0.0822 B( 14-C , 24-H ) :   0.7290 B( 14-C , 27-H ) :  -0.0796 
B( 15-C , 23-H ) :  -0.0874 B( 15-C , 24-H ) :  -0.0803 B( 15-C , 27-H ) :   0.7297 
B( 16-H , 17-H ) :  -0.0628 B( 25-H , 26-H ) :  -0.0644 


                     *******************************
                     * LOEWDIN POPULATION ANALYSIS *
                     *******************************

----------------------
LOEWDIN ATOMIC CHARGES
----------------------
   0 O :   -0.145776
   1 O :   -0.252818
   2 N :   -0.250426
   3 C :   -0.107228
   4 C :   -0.013688
   5 C :   -0.008957
   6 C :   -0.040108
   7 C :   -0.006518
   8 C :   -0.079408
   9 C :   -0.073348
  10 C :   -0.068402
  11 C :   -0.074857
  12 C :   -0.064980
  13 C :    0.131804
  14 C :   -0.071644
  15 C :   -0.074158
  16 H :    0.078622
  17 H :    0.082079
  18 H :    0.079210
  19 H :    0.075428
  20 H :    0.074324
  21 H :    0.072400
  22 H :    0.074095
  23 H :    0.072702
  24 H :    0.073866
  25 H :    0.129486
  26 H :    0.127782
  27 H :    0.073783
  28 H :    0.186734

-------------------------------
LOEWDIN REDUCED ORBITAL CHARGES
-------------------------------
  0 O s       :     3.476493  s :     3.476493
      pz      :     1.443525  p :     4.619514
      px      :     1.666388
      py      :     1.509600
      dz2     :     0.010413  d :     0.049770
      dxz     :     0.014823
      dyz     :     0.010412
      dx2y2   :     0.007079
      dxy     :     0.007043

  1 O s       :     3.562583  s :     3.562583
      pz      :     1.644257  p :     4.635257
      px      :     1.448943
      py      :     1.542058
      dz2     :     0.007239  d :     0.054978
      dxz     :     0.010198
      dyz     :     0.006127
      dx2y2   :     0.013086
      dxy     :     0.018329

  2 N s       :     3.212755  s :     3.212755
      pz      :     1.340040  p :     3.979466
      px      :     1.197281
      py      :     1.442144
      dz2     :     0.007128  d :     0.058206
      dxz     :     0.017967
      dyz     :     0.009396
      dx2y2   :     0.004732
      dxy     :     0.018983

  3 C s       :     2.892850  s :     2.892850
      pz      :     1.032073  p :     3.132552
      px      :     1.035869
      py      :     1.064610
      dz2     :     0.008740  d :     0.081826
      dxz     :     0.022345
      dyz     :     0.020299
      dx2y2   :     0.009363
      dxy     :     0.021079

  4 C s       :     2.874940  s :     2.874940
      pz      :     0.969788  p :     3.038906
      px      :     1.016330
      py      :     1.052788
      dz2     :     0.008301  d :     0.099842
      dxz     :     0.011840
      dyz     :     0.016013
      dx2y2   :     0.031270
      dxy     :     0.032418

  5 C s       :     2.864255  s :     2.864255
      pz      :     0.979490  p :     3.043516
      px      :     1.023590
      py      :     1.040436
      dz2     :     0.008877  d :     0.101186
      dxz     :     0.012376
      dyz     :     0.015820
      dx2y2   :     0.031536
      dxy     :     0.032576

  6 C s       :     2.879930  s :     2.879930
      pz      :     1.042639  p :     3.032138
      px      :     0.988305
      py      :     1.001194
      dz2     :     0.011678  d :     0.128039
      dxz     :     0.027305
      dyz     :     0.035295
      dx2y2   :     0.023339
      dxy     :     0.030422

  7 C s       :     2.864717  s :     2.864717
      pz      :     0.969846  p :     3.039352
      px      :     1.028226
      py      :     1.041280
      dz2     :     0.009117  d :     0.102448
      dxz     :     0.012832
      dyz     :     0.016150
      dx2y2   :     0.032195
      dxy     :     0.032155

  8 C s       :     2.897820  s :     2.897820
      pz      :     0.999634  p :     3.097305
      px      :     1.040918
      py      :     1.056753
      dz2     :     0.005943  d :     0.084283
      dxz     :     0.007357
      dyz     :     0.015656
      dx2y2   :     0.027530
      dxy     :     0.027796

  9 C s       :     2.895293  s :     2.895293
      pz      :     0.997701  p :     3.094889
      px      :     1.050323
      py      :     1.046865
      dz2     :     0.007310  d :     0.083165
      dxz     :     0.009848
      dyz     :     0.012329
      dx2y2   :     0.024656
      dxy     :     0.029022

 10 C s       :     2.896077  s :     2.896077
      pz      :     0.995150  p :     3.088479
      px      :     1.049252
      py      :     1.044077
      dz2     :     0.007344  d :     0.083846
      dxz     :     0.010055
      dyz     :     0.012276
      dx2y2   :     0.025396
      dxy     :     0.028775

 11 C s       :     2.896476  s :     2.896476
      pz      :     0.990751  p :     3.093579
      px      :     1.051728
      py      :     1.051100
      dz2     :     0.008857  d :     0.084802
      dxz     :     0.014302
      dyz     :     0.007972
      dx2y2   :     0.028476
      dxy     :     0.025195

 12 C s       :     2.896892  s :     2.896892
      pz      :     0.988640  p :     3.084512
      px      :     1.033648
      py      :     1.062224
      dz2     :     0.006770  d :     0.083577
      dxz     :     0.008557
      dyz     :     0.013936
      dx2y2   :     0.024384
      dxy     :     0.029929

 13 C s       :     2.862004  s :     2.862004
      pz      :     0.870064  p :     2.720000
      px      :     0.909282
      py      :     0.940655
      dz2     :     0.058120  d :     0.286192
      dxz     :     0.080214
      dyz     :     0.040747
      dx2y2   :     0.055049
      dxy     :     0.052063

 14 C s       :     2.897508  s :     2.897508
      pz      :     0.989688  p :     3.089818
      px      :     1.049515
      py      :     1.050616
      dz2     :     0.008677  d :     0.084318
      dxz     :     0.014070
      dyz     :     0.007952
      dx2y2   :     0.028555
      dxy     :     0.025063

 15 C s       :     2.897362  s :     2.897362
      pz      :     0.988895  p :     3.092537
      px      :     1.037726
      py      :     1.065916
      dz2     :     0.005942  d :     0.084259
      dxz     :     0.007419
      dyz     :     0.015846
      dx2y2   :     0.027129
      dxy     :     0.027923

 16 H s       :     0.882207  s :     0.882207
      pz      :     0.014040  p :     0.039172
      px      :     0.014071
      py      :     0.011061

 17 H s       :     0.877846  s :     0.877846
      pz      :     0.012117  p :     0.040074
      px      :     0.008854
      py      :     0.019103

 18 H s       :     0.880597  s :     0.880597
      pz      :     0.013627  p :     0.040194
      px      :     0.014310
      py      :     0.012256

 19 H s       :     0.883981  s :     0.883981
      pz      :     0.010637  p :     0.040591
      px      :     0.021830
      py      :     0.008125

 20 H s       :     0.884210  s :     0.884210
      pz      :     0.009863  p :     0.041465
      px      :     0.016018
      py      :     0.015584

 21 H s       :     0.887345  s :     0.887345
      pz      :     0.009409  p :     0.040255
      px      :     0.016306
      py      :     0.014540

 22 H s       :     0.885944  s :     0.885944
      pz      :     0.007730  p :     0.039961
      px      :     0.006709
      py      :     0.025522

 23 H s       :     0.887111  s :     0.887111
      pz      :     0.009324  p :     0.040187
      px      :     0.016209
      py      :     0.014655

 24 H s       :     0.886212  s :     0.886212
      pz      :     0.007712  p :     0.039922
      px      :     0.006681
      py      :     0.025530

 25 H s       :     0.792429  s :     0.792429
      pz      :     0.024259  p :     0.078085
      px      :     0.025962
      py      :     0.027863

 26 H s       :     0.795092  s :     0.795092
      pz      :     0.033639  p :     0.077126
      px      :     0.020340
      py      :     0.023147

 27 H s       :     0.886267  s :     0.886267
      pz      :     0.010603  p :     0.039950
      px      :     0.021385
      py      :     0.007961

 28 H s       :     0.699555  s :     0.699555
      pz      :     0.029506  p :     0.113711
      px      :     0.029240
      py      :     0.054965


---------------------------------
LOEWDIN BOND ORDERS (THRESH 0.050000)
---------------------------------
B(  0-O ,  1-O ) :   0.2036 B(  0-O ,  6-C ) :   0.0633 B(  0-O , 13-C ) :   1.4041 
B(  0-O , 28-H ) :   0.9845 B(  1-O ,  6-C ) :   0.0841 B(  1-O , 13-C ) :   2.1946 
B(  2-N ,  3-C ) :   0.0547 B(  2-N ,  6-C ) :   1.1583 B(  2-N , 13-C ) :   0.0783 
B(  2-N , 25-H ) :   0.9812 B(  2-N , 26-H ) :   0.9869 B(  3-C ,  4-C ) :   1.0361 
B(  3-C ,  5-C ) :   0.0530 B(  3-C ,  6-C ) :   0.9940 B(  3-C ,  8-C ) :   0.0678 
B(  3-C , 13-C ) :   0.0540 B(  3-C , 16-H ) :   0.9221 B(  3-C , 17-H ) :   0.9166 
B(  4-C ,  5-C ) :   1.2616 B(  4-C ,  7-C ) :   0.0633 B(  4-C ,  8-C ) :   1.5465 
B(  4-C ,  9-C ) :   0.0634 B(  4-C , 10-C ) :   0.1083 B(  4-C , 11-C ) :   0.0717 
B(  5-C ,  7-C ) :   1.2572 B(  5-C ,  8-C ) :   0.0704 B(  5-C ,  9-C ) :   1.3077 
B(  5-C , 10-C ) :   0.0612 B(  5-C , 11-C ) :   0.0649 B(  5-C , 12-C ) :   0.0619 
B(  5-C , 14-C ) :   0.0718 B(  5-C , 15-C ) :   0.0678 B(  6-C , 13-C ) :   0.9743 
B(  6-C , 18-H ) :   0.9032 B(  7-C ,  8-C ) :   0.0638 B(  7-C ,  9-C ) :   0.0626 
B(  7-C , 10-C ) :   1.3021 B(  7-C , 11-C ) :   0.0729 B(  7-C , 12-C ) :   1.3089 
B(  7-C , 14-C ) :   0.0676 B(  7-C , 15-C ) :   0.0721 B(  8-C , 10-C ) :   0.0723 
B(  8-C , 11-C ) :   1.3572 B(  8-C , 19-H ) :   0.9191 B(  9-C , 12-C ) :   0.1146 
[...]
 17 H      0.8758     1.0000     0.1242     0.9552     0.9552     0.0000
 18 H      0.8788     1.0000     0.1212     0.9553     0.9553     0.0000
 19 H      0.9088     1.0000     0.0912     0.9639     0.9639    -0.0000
 20 H      0.9113     1.0000     0.0887     0.9624     0.9624     0.0000
 21 H      0.9184     1.0000     0.0816     0.9599     0.9599    -0.0000
 22 H      0.9154     1.0000     0.0846     0.9591     0.9591     0.0000
 23 H      0.9171     1.0000     0.0829     0.9593     0.9593     0.0000
 24 H      0.9154     1.0000     0.0846     0.9588     0.9588     0.0000
 25 H      0.7534     1.0000     0.2466     0.9293     0.9293     0.0000
 26 H      0.7621     1.0000     0.2379     0.9195     0.9195    -0.0000
 27 H      0.9157     1.0000     0.0843     0.9587     0.9587     0.0000
 28 H      0.6771     1.0000     0.3229     0.9129     0.9129     0.0000

  Mayer bond orders larger than 0.100000
B(  0-O , 13-C ) :   1.0897 B(  0-O , 28-H ) :   0.8519 B(  1-O , 13-C ) :   1.9042 
B(  2-N ,  6-C ) :   1.0371 B(  2-N , 25-H ) :   0.8985 B(  2-N , 26-H ) :   0.9123 
B(  3-C ,  4-C ) :   0.9891 B(  3-C ,  6-C ) :   0.9673 B(  3-C , 16-H ) :   0.9388 
B(  3-C , 17-H ) :   0.9304 B(  4-C ,  5-C ) :   1.2635 B(  4-C ,  8-C ) :   1.5192 
B(  5-C ,  7-C ) :   1.3028 B(  5-C ,  9-C ) :   1.2852 B(  6-C , 13-C ) :   0.9007 
B(  6-C , 18-H ) :   0.9267 B(  7-C , 10-C ) :   1.2794 B(  7-C , 12-C ) :   1.2843 
B(  8-C , 11-C ) :   1.3006 B(  8-C , 19-H ) :   0.9346 B(  9-C , 14-C ) :   1.5344 
B(  9-C , 20-H ) :   0.9304 B( 10-C , 11-C ) :   1.5368 B( 10-C , 21-H ) :   0.9379 
B( 11-C , 22-H ) :   0.9423 B( 12-C , 15-C ) :   1.5356 B( 12-C , 23-H ) :   0.9374 
B( 14-C , 15-C ) :   1.3215 B( 14-C , 24-H ) :   0.9427 B( 15-C , 27-H ) :   0.9431 


-------
TIMINGS
-------

Total SCF time: 0 days 0 hours 1 min 37 sec 

Total time                  ....      97.420 sec
Sum of individual times     ....      94.105 sec  ( 96.6%)

SCF preparation             ....       0.382 sec  (  0.4%)
Fock matrix formation       ....      92.839 sec  ( 95.3%)
  Startup                   ....       0.008 sec  (  0.0% of F)
  Split-RI-J                ....       9.889 sec  ( 10.7% of F)
  Chain of spheres X        ....      73.186 sec  ( 78.8% of F)
  XC integration            ....      12.900 sec  ( 13.9% of F)
    XC Preparation          ....       0.000 sec  (  0.0% of XC)
    Basis function eval.    ....       4.861 sec  ( 37.7% of XC)
    Density eval.           ....       3.038 sec  ( 23.5% of XC)
    XC-Functional eval.     ....       0.622 sec  (  4.8% of XC)
    XC-Potential eval.      ....       3.700 sec  ( 28.7% of XC)
Diagonalization             ....       0.000 sec  (  0.0%)
Density matrix formation    ....       0.055 sec  (  0.1%)
Total Energy calculation    ....       0.027 sec  (  0.0%)
Population analysis         ....       0.350 sec  (  0.4%)
Orbital Transformation      ....       0.043 sec  (  0.0%)
Orbital Orthonormalization  ....       0.000 sec  (  0.0%)
DIIS solution               ....       0.214 sec  (  0.2%)
  MO trafo                  ....       0.000 sec  (  0.0 % of DIIS)
  Orb grad                  ....       0.000 sec  (  0.0 % of DIIS)
  Energy W gradient         ....       0.000 sec  (  0.0 % of DIIS)
  DIIS error                ....       0.045 sec  ( 21.0 % of DIIS)
  DIIS work                 ....       0.140 sec  ( 65.6 % of DIIS)
  Form Q                    ....       0.000 sec  (  0.0 % of DIIS)
  Form QpQm                 ....       0.000 sec  (  0.0 % of DIIS)
  Exp/Cayley                ....       0.000 sec  (  0.0 % of DIIS)
  Orb update                ....       0.000 sec  (  0.0 % of DIIS)
  Wake-sleep                ....       0.006 sec  (  3.0 % of DIIS)
SOSCF solution              ....       0.194 sec  (  0.2%)
  MO trafo                  ....       0.063 sec  ( 32.8 % of SOSCF)
  Orb grad                  ....       0.005 sec  (  2.8 % of SOSCF)
  Rot update                ....       0.022 sec  ( 11.2 % of SOSCF)
  Step                      ....       0.096 sec  ( 49.4 % of SOSCF)
Finished LeanSCF after  97.4 sec

Maximum memory used throughout the entire LEANSCF-calculation: 36.8 MB


-------------------------------------------------------------------------------
                          DFT DISPERSION CORRECTION                            
                                                                               
                              DFTD3 V3.1  Rev 1                                
                          USING Becke-Johnson damping                          
-------------------------------------------------------------------------------
The B3LYP functional is recognized
Active option DFTDOPT                   ...         4   

molecular C6(AA) [au] = 9427.854585 


            DFT-D V3
 parameters
 s6 scaling factor         :     1.0000 
 a1 scaling factor         :     0.3981 
 s8 scaling factor         :     1.9889 
 a2 scaling factor         :     4.4211 
 ad hoc parameters k1-k3   :    16.0000     1.3333    -4.0000 

 Edisp/kcal,au: -39.539086997090  -0.063009539160 
 E6   /kcal   : -18.596658045 
 E8   /kcal   : -20.942428952 
 % E8         :  52.966394882 

-------------------------   ----------------
Dispersion correction           -0.063009539
-------------------------   ----------------


-------------------------   --------------------
FINAL SINGLE POINT ENERGY      -708.084140109745
-------------------------   --------------------



           ************************************************************
           *        Program running with 2 parallel MPI-processes     *
           *              working on a common directory               *
           ************************************************************
------------------------------------------------------------------------------
                            ORCA SCF RESPONSE CALCULATION
------------------------------------------------------------------------------

GBWName                                 ... /kaggle/working/Nal-2/Nal_InterFrag.gbw
Number of atoms                         ...     29
Number of basis functions               ...    289
Max core memory                         ...   3000 MB

Electric field perturbation             ... YES
Quadrupolar field perturbation          ...  NO
Magnetic field perturbation (no GIAO)   ...  NO
Magnetic field perturbation (with GIAO) ...  NO
Linear momentum (velocity) perturbation ...  NO
Spin-orbit coupling perturbation        ...  NO
Choice of electric origin               ... Center of mass
Position of electric origin             ...    -0.208784    -0.015624     0.095299
Choice of magnetic origin               ... GIAO
Position of magnetic origin             ...     0.000000     0.000000     0.000000
Nuclear geometric perturbations         ...  NO (  87 perturbations)
Nucleus-orbit perturbations             ...  NO (   0 perturbations)
Spin-dipole/Fermi contact perturbations ...  NO (   0 perturbations)

Total number of real perturbations      ...      3
Total number of imaginary perturbations ...      0
Total number of triplet perturbations   ...      0
Total number of SOC perturbations       ...      0

Using XC Grid                  ... (/kaggle/working/Nal-2/Nal_InterFrag.grid_cpscf.tmp) 
Recalculating density on grid  ... (/kaggle/working/Nal-2/Nal_InterFrag.grho_cpscf0.tmp) done
Calculating the xc-kernel      ... (/kaggle/working/Nal-2/Nal_InterFrag.fxc_cpscf0.tmp) done

                                **********************
                                * REAL PERTURBATIONS *
                                **********************



-------------------
SHARK CP-SCF DRIVER
-------------------

Dimension of the orbital basis          ...    289
Dimension of the CPSCF-problem          ...  13224
Number of operators                     ...      1
Max. number of iterations               ...    128
Convergence Tolerance                   ... 1.0e-04
Number of perturbations                 ...      3
Perturbation type                       ... REAL

----------------------------
POPLE LINEAR EQUATION SOLVER
----------------------------

  ITERATION   0:   ||err||_max =   3.1158e+01 (   4.1 sec   0/  3 done)
  ITERATION   1:   ||err||_max =   1.4006e+00 (   3.8 sec   0/  3 done)
  ITERATION   2:   ||err||_max =   5.6355e-01 (   3.7 sec   0/  3 done)
  ITERATION   3:   ||err||_max =   1.3898e-01 (   3.7 sec   0/  3 done)
  ITERATION   4:   ||err||_max =   5.1425e-02 (   3.8 sec   0/  3 done)
  ITERATION   5:   ||err||_max =   1.5099e-02 (   3.7 sec   0/  3 done)
  ITERATION   6:   ||err||_max =   6.5849e-03 (   3.8 sec   0/  3 done)
  ITERATION   7:   ||err||_max =   2.0190e-03 (   3.7 sec   0/  3 done)
  ITERATION   8:   ||err||_max =   6.8680e-04 (   3.7 sec   0/  3 done)
  ITERATION   9:   ||err||_max =   2.4610e-04 (   3.9 sec   0/  3 done)
  ITERATION  10:   ||err||_max =   8.9971e-05 (   3.8 sec   3/  3 done)

CP-SCF equations solved in  41.7 sec
Response densities calculated in   0.0 sec

Maximum memory used throughout the entire SCFRESP-calculation: 41.8 MB


           ************************************************************
           *        Program running with 2 parallel MPI-processes     *
           *              working on a common directory               *
           ************************************************************

------------------------------------------------------------------------------
                              ORCA PROPERTY CALCULATIONS
------------------------------------------------------------------------------

GBWName                                 ... /kaggle/working/Nal-2/Nal_InterFrag.gbw
Number of atoms                         ...     29
Number of basis functions               ...    289
Max core memory                         ...   3000 MB

Electric properties:
Dipole moment                           ... YES
Quadrupole moment                       ...  NO
Static polarizability (Dipole/Dipole)   ... YES
Static polarizability (Dipole/Quad.)    ...  NO
Static polarizability (Quad./Quad.)     ...  NO
Static polarizability (Velocity)        ...  NO
Static hyperpolarizability              ...  NO

Atomic electric properties:
Dipole moment                           ...  NO
Quadrupole moment                       ...  NO
Static polarizability                   ...  NO

Choice of electric origin               ... Center of mass
Position of electric origin             ...    -0.208784    -0.015624     0.095299

General magnetic properties:
Magnetizability                         ...  NO

EPR properties:
g-Tensor (aka g-matrix)                 ...  NO
Zero-Field splitting spin-orbit         ...  NO
Zero-field splitting spin-spin          ...  NO
Hyperfine couplings                     ...  NO (   0 nuclei)
Quadrupole couplings                    ...  NO (   0 nuclei)
Contact density                         ...  NO (   0 nuclei)

NMR properties:
Chemical shifts                         ...  NO (   0 nuclei)
Spin-rotation constants                 ...  NO (   0 nuclei)
Spin-spin couplings                     ...  NO (   0 nuclei,    0 pairs)

Choice of magnetic origin               ... GIAO
Position of magnetic origin             ...     0.000000     0.000000     0.000000

Properties with geometric perturbations:
SCF Hessian                             ...  NO
IR spectrum                             ...  NO
VCD spectrum                            ...  NO
X-ray spectroscopy properties:
SCF XES/XAS/RIXS spectra                ...  NO

SCF SOC stabilization energy            ...  NO
Diagonal Born-Oppenheimer correction    ...  NO

-------------
DIPOLE MOMENT
-------------

Method             : SCF
Type of density    : Electron Density
Multiplicity       :   1
Irrep              :   0
Energy             :  -708.0211305705843188 Eh
Basis              : AO
                                X                 Y                 Z
Electronic contribution:      0.066189843       3.108363924       2.139466627
Nuclear contribution   :      0.233900397      -3.011698914      -1.608295614
                        -----------------------------------------
Total Dipole Moment    :      0.300090241       0.096665010       0.531171013
                        -----------------------------------------
Magnitude (a.u.)       :      0.617689988
Magnitude (Debye)      :      1.570043176



--------------------
Rotational spectrum 
--------------------
 
Rotational constants in cm-1:             0.030122             0.013137             0.010852 
Rotational constants in MHz :           903.042351           393.849846           325.320532 

Dipole components along the rotational axes: 
x,y,z [a.u.] :    -0.317772     0.045021     0.527764 
x,y,z [Debye]:    -0.807712     0.114434     1.341470 

 

Dipole moment calculation done in   0.0 sec 


---------------------------------------------------
STATIC POLARIZABILITY TENSOR (Dipole/Dipole)
---------------------------------------------------

Method             : SCF
Type of density    : Electron Density
Type of derivative : Electric Field (Direction=X)
Multiplicity       :   1
Irrep              :   0
Basis              : AO

The raw cartesian tensor (atomic units):
     174.620953813        -9.168583861        35.884681082  
      -9.168583861       169.037775310        -6.001885871  
      35.884681082        -6.001885871        87.493821226  
diagonalized tensor: 
      74.547506056       164.229532433       192.375511860  

Orientation: 
      -0.335196343        -0.400552477         0.852760884  
       0.027294000        -0.908872397        -0.416180254  
       0.941752860        -0.116226844         0.315583383  

Isotropic polarizability : 143.71752


Polarizability tensor calculation done in   0.0 sec 

Maximum memory used throughout the entire PROP-calculation: 19.2 MB

--------------------------------
SUGGESTED CITATIONS FOR THIS RUN
--------------------------------

Below you find a list of papers that are relevant to this ORCA run
We neither can nor want to force you to cite these papers, but we appreciate if you do
You receive ORCA, which is the product of decades of hard work by many enthusiastic individuals, for free
The only thing we kindly ask in return is that you cite our papers,
We deeply appreciate it, if you show your appreciation for ORCA by not just citing the generic ORCA reference.

Please note that relegating all ORCA citations to the supporting information does *not* help us.
SI sections are not indexed - citations you put there will not count into any citation statistics
But we need these citations in order to attract the funding resources that allow us to do what we are doing

Therefore, if you are a happy ORCA user, please consider citing a few of the papers listed below in the main body of your paper

In addition to the list printed below, the program has created the file /kaggle/working/Nal-2/Nal_InterFrag.bibtex that contains the list in bibtex format
You can import this file easily into all common literature databanks and citation aid programs

It goes without saying that in many instances, there are alternative algorithms to achieve similar
results as the ones you have gotten from ORCA. It is, of course, also the case that in some instances
ORCA just re-implements algorithms worked out by others. We are fully aware of that and we are also
fully appreciative of our colleagues work. Hence this citation list should not be read as indicating
that the listed papers, which are focused on our own work, are the only ones worth citing. It simply
meant to make it easier for users to cite ORCA specific papers. It is not a substitute for doing your
own literature research and citing the relevant literature in a scientifically appropriate manner.

List of essential papers. We consider these as the minimum necessary citations

  1. Neese, F.
     Software update: the ORCA program system, version 6.0
     WIRES Comput. Molec. Sci. 2025 15(1), e70019
     doi.org/10.1002/wcms.70019

List of papers to cite with high priority. The work reported in these papers was absolutely
necessary for this run to complete.
Our perspective: the developers of density functionals and basis sets usually get cited in chemistry papers
Good! But without the algorithms to do something with them, the functionals or basis sets would not do anything.
Hence, in our opinion, the algorithm design and method developments papers are equally worthy of getting cited

  1. Neese, F.
     An improvement of the resolution of the identity approximation for the formation of the Coulomb matrix
     J. Comp. Chem. 2003 24(14), 1740-1747
     doi.org/10.1002/jcc.10318
  2. Neese, F.; Wennmohs, F.; Hansen, A.; Becker, U.
     Efficient, approximate and parallel Hartree-Fock and hybrid DFT calculations. A 'chain-of-spheres' algorithm for the Hartree-Fock exchange
     Chem. Phys. 2009 356(1-3), 98-109
     doi.org/10.1016/j.chemphys.2008.10.036
  3. Grimme, S.; Antony, J.; Ehrlich, S.; Krieg, H.
     A consistent and accurate ab initio parametrization of density functional dispersion correction (DFT-D) for the 94 elements H-Pu
     J. Chem. Phys. 2010 132 , 154104
     doi.org/10.1063/1.3382344
  4. Grimme, S.; Ehrlich, S.; Goerigk, L.
     Effect of the damping function in dispersion corrected density functional theory
     J. Comput. Chem. 2011 32(7), 1456-1465
     doi.org/10.1002/jcc.21759
  5. Helmich-Paris, B.; de Souza, B.; Neese, F.; Izsák, R.
     An improved chain of spheres for exchange algorithm
     J. Chem. Phys. 2021 155(10), 104109
     doi.org/10.1063/5.0058766
  6. Neese, F.
     The SHARK Integral Generation and Digestion System
     J. Comp. Chem. 2022 44(3), 381
     doi.org/10.1002/jcc.26942

List of suggested additional citations. These are papers that are important in the 'surrounding' of 
of this run, or papers that preceded the highly important papers. If you like your results we are grateful for a citation.

  1. Izsak, R.; Neese, F.
     An overlap fitted chain of spheres exchange method
     J. Chem. Phys. 2011 135 , 144105
     doi.org/10.1063/1.3646921
  2. Izsak, R.; Hansen, A.; Neese, F.
     The resolution of identity and chain of spheres approximations for the LPNO-CCSD singles Fock term
     Molec. Phys. 2012 110 , 2413-2417
     doi.org/10.1080/00268976.2012.687466
  3. Neese, F.
     The ORCA program system
     WIRES Comput. Molec. Sci. 2012 2(1), 73-78
     doi.org/10.1002/wcms.81
  4. Izsak, R.; Neese, F.; Klopper, W.
     Robust fitting techniques in the chain of spheres approximation to the Fock exchange: The role of the complementary space
     J. Chem. Phys. 2013 139 , 
     doi.org/10.1063/1.4819264
  5. Neese, F.
     Software update: the ORCA program system, version 4.0
     WIRES Comput. Molec. Sci. 2018 8(1), 1-6
     doi.org/10.1002/wcms.1327
  6. Neese, F.; Wennmohs, F.; Becker, U.; Riplinger, C.
     The ORCA quantum chemistry program package
     J. Chem. Phys. 2020 152(22), 224108
     doi.org/10.1063/5.0004608
  7. Neese, F.
     Software update: The ORCA program system—Version 5.0
     WIRES Comput. Molec. Sci. 2022 12(1), e1606
     doi.org/10.1002/wcms.1606

List of optional additional citations

  1. Neese, F.
     Approximate second-order SCF convergence for spin unrestricted wavefunctions
     Chem. Phys. Lett. 2000 325(1-3), 93-98
     doi.org/10.1016/s0009-2614(00)00662-x

Timings for individual modules:

Sum of individual times          ...      145.523 sec (=   2.425 min)
Startup calculation              ...        3.578 sec (=   0.060 min)   2.5 %
SCF iterations                   ...       99.018 sec (=   1.650 min)  68.0 %
SCF Response                     ...       42.498 sec (=   0.708 min)  29.2 %
Property calculations            ...        0.429 sec (=   0.007 min)   0.3 %
                             ****ORCA TERMINATED NORMALLY****
TOTAL RUN TIME: 0 days 0 hours 2 minutes 26 seconds 9 msec
