
                                 *****************
                                 * O   R   C   A *
                                 *****************

                                            #,                                       
                                            ###                                      
                                            ####                                     
                                            #####                                    
                                            ######                                   
                                           ########,                                 
                                     ,,################,,,,,                         
                               ,,#################################,,                 
                          ,,##########################################,,             
                       ,#########################################, ''#####,          
                    ,#############################################,,   '####,        
                  ,##################################################,,,,####,       
                ,###########''''           ''''###############################       
              ,#####''   ,,,,##########,,,,          '''####'''          '####       
            ,##' ,,,,###########################,,,                        '##       
           ' ,,###''''                  '''############,,,                           
         ,,##''                                '''############,,,,        ,,,,,,###''
      ,#''                                            '''#######################'''  
     '                                                          ''''####''''         
             ,#######,   #######,   ,#######,      ##                                
            ,#'     '#,  ##    ##  ,#'     '#,    #''#        ,####,    ,#,          
            ##       ##  ##   ,#'  ##            #'  '#       #'       ,# #          
            ##       ##  #######   ##           ,######,      #####,      #          
            '#,     ,#'  ##    ##  '#,     ,#' ,#      #,     #,   #      #          
             '#######'   ##     ##  '#######'  #'      '#     '####' #    #          



                #########################################################
                #                        -***-                          #
                #          Department of theory and spectroscopy        #
                #                                                       #
                #                      Frank Neese                      #
                #                                                       #
                #     Directorship, Architecture, Infrastructure        #
                #                    SHARK, DRIVERS                     #
                #        Core code/Algorithms in most modules           #
                #                                                       #
                #        Max Planck Institute fuer Kohlenforschung      #
                #                Kaiser Wilhelm Platz 1                 #
                #                 D-45470 Muelheim/Ruhr                 #
                #                      Germany                          #
                #                                                       #
                #                  All rights reserved                  #
                #                        -***-                          #
                #########################################################


                         Program Version 6.1.1  -  RELEASE   -
                                (GIT: $487d211c$)
                          ($2025-11-21 10:33:24 +0100$)
                                                                         
                                  - NO-DMRG VERSION -                    
                                                                         


 With contributions from (in alphabetic order):
[Max-Planck-Institut fuer Kohlenforschung]                               
  Daniel Aravena         : Magnetic Suceptibility                        
  Michael Atanasov       : Ab Initio Ligand Field Theory (pilot matlab implementation)
  Alexander A. Auer      : GIAO ZORA, VPT2 properties, NMR spectrum      
  Ute Becker             : All parallelization in ORCA, NUMFREQ, NUMCALC 
  Giovanni Bistoni       : ED, misc. LED, open-shell LED, HFLD           
  Dmytro Bykov           : pre 5.0 version of the SCF Hessian            
  Marcos Casanova-Páez   : Triplet and SCS-CIS(D). UHF-(DLPNO)-IP/EA/STEOM-CCSD. UHF-CVS-IP/STEOM-CCSD   
  Vijay G. Chilkuri      : MRCI spin determinant printing, contributions to CSF-ICE 
  Pauline Colinet        : FMM embedding                                 
  Dipayan Datta          : RHF DLPNO-CCSD density                        
  Achintya Kumar Dutta   : EOM-CC, STEOM-CC                              
  Nicolas Foglia         : Exact transition moments, OPA infrastructure, MCD improvements    
  Dmitry Ganyushin       : Spin-Orbit,Spin-Spin,Magnetic field MRCI      
  Miquel Garcia-Rates    : C-PCM and meta-GGA Hessian, CCSD/C-PCM, Gaussian charge scheme 
  Tiago L. C. Gouveia    : GS-ROHF, GS-ROCIS                             
  Yang Guo               : DLPNO-NEVPT2, F12-NEVPT2, CIM, IAO-localization        
  Andreas Hansen         : Spin unrestricted coupled pair/coupled cluster methods 
  Ingolf Harden          : AUTO-CI MPn and infrastructure                
  Benjamin Helmich-Paris : MC-RPA, TRAH-(SCF,CASSCF), AVAS, COSX integrals, SCF dyn. polar., MC-PDFT, srDFT 
  Lee Huntington         : MR-EOM, pCC                                   
  Robert Izsak           : Overlap fitted RIJCOSX, COSX-SCS-MP3, EOM     
  Riya Kayal             : Wick's Theorem for AUTO-CI, AUTO-CI UHF-CCSDT 
  Emily Kempfer          : AUTO-CI RHF CISDT and CCSDT, approximate NEVPT4
  Christian Kollmar      : KDIIS, OOCD, Brueckner-CCSD(T), CCSD density, CASPT2, CASPT2-K, improved NEVPT2 
  Axel Koslowski         : Symmetry handling                             
  Simone Kossmann        : meta-GGA functionals, TD-DFT gradient, OOMP2, (MP2 Hessian; deprecated post 5.0) 
  Lucas Lang             : DCDCAS, Hyperfine gauge corrections, ICE-SOC+SSC
  Marvin Lechner         : AUTO-CI (C++ implementation), FIC-MRCC        
  Spencer Leger          : CASSCF response                               
  Dagmar Lenk            : GEPOL surface, SMD, ORCA-2-JSON               
  Dimitrios Liakos       : Extrapolation schemes; Compound Job, Property file
  Dimitrios Manganas     : Further ROCIS development; embedding schemes. LFT, Crystal Embedding 
  Dimitrios Pantazis     : SARC Basis sets                               
  Anastasios Papadopoulos: AUTO-CI, single reference methods and gradients 
  Taras Petrenko         : pre 6.0 DFT Hessian and TD-DFT gradient,  ECA, NRVS 
  Petra Pikulova         : Analytic Raman intensities                    
  Peter Pinski           : DLPNO-MP2, DLPNO-MP2 Gradient                 
  Shashank Vittal Rao    : ES-AILFT, MagRelax                            
  Christoph Reimann      : Effective Core Potentials                     
  Marius Retegan         : Local ZFS, SOC                                
  Christoph Riplinger    : Optimizer, TS searches, QM/MM, DLPNO-CCSD(T), (RO)-DLPNO pert. Triples 
  Michael Roemelt        : Original ROCIS implementation, recursive CI coupling coefficients
  Masaaki Saitow         : Open-shell DLPNO-CCSD energy and density      
  Barbara Sandhoefer     : DKH picture change effects                    
  Yorick L. A. Schmerwitz: GMF and freeze-and-release deltaSCF, NEB S-IDPP initial path                    
  Kantharuban Sivalingam : CASSCF convergence/infrastructure, NEVPT2, NEVPT3, NEVPT4(SD), FIC-MRCI and CEPA variants
  Bernardo de Souza      : ESD, SOC TD-DFT                               
  Georgi L. Stoychev     : AutoAux, RI-MP2 NMR, DLPNO-MP2 response, X2C  
  Van Anh Tran           : RI-MP2 g-tensors                              
  Willem Van den Heuvel  : Paramagnetic NMR                              
  Zikuan Wang            : NOTCH, Electric field optimization            
  Frank Wennmohs         : Technical directorship and infrastructure     
  Hang Xu                : AUTO-CI-Response properties                   
                                                                         
[FACCTs GmbH]                                                            
  Markus Bursch, Nicolas Foglia, Miquel Garcia-Rates, Ingolf Harden, Hagen Neugebauer, Anastasios Papadopoulos, 
  Christoph Riplinger, Bernardo de Souza, Georgi L. Stoychev                                                    
                                                                 
  APM, various basis sets, CI-OPT, improved COSX, DLPNO-Multilevel,           
  DOCKER, DRACO, updates on ESD, Fragmentator, GOAT, IRC, LR-CPCM, L-BFGS, MBIS, meta-GGA TD-DFT gradient, ML-optimized integration grids, 
  MM, NACMEs, nearIR, NEB, NEB-TS, NL-DFT gradient (VV10), 2- and 3-layer-ONIOM, interface openCOSMO-RS, QMMM,   
  Crystal-QMMM, RESP, rigid body optimization, SF, symmetry and pop. for TD-DFT, various functionals, SOLVATOR                                   
                                                                         
[Other institutions]                                                     
  V. Asgeirsson          : NEB                                           
  Christoph Bannwarth    : sTDA-DFT, sTD-DFT, PBEh-3c, B97-3c, D3        
  Giovanni Bistoni       : ETS/NOCV, ADLD/ADEX, COVALED                  
  Martin Brehm           : Molecular dynamics                            
  Ronald Cardenas        : ETS/NOCV                                      
  Martina Colucci        : COVALED                                       
  Sebastian Ehlert       : rSCAN, r2SCAN, r2SCAN-3c, D4, dhf basis sets  
  Marvin Friede          : D4 for Fr, Ra, Ac-Lr                          
  Lars Goerigk           : TD-DFT with DH, B97 family of functionals     
  Stefan Grimme          : VdW corrections, initial TS optimization, DFT functionals, gCP, sTDA/sTD-DF 
  Waldemar Hujo          : DFT-NL                                        
  H. Jonsson             : NEB                                           
  Holger Kruse           : gCP                                           
  Marcel Mueller         : wB97X-3c, vDZP basis set                      
  Hagen Neugebauer       : wr2SCAN, Native XTB                           
  Gianluca Regni         : ADLD/ADEX                                     
  Tobias Risthaus        : pre 6.0 range-separated hybrid DFT and stability analysis
  Lukas Wittmann         : regularized MP2, r2SCAN double-hybrids, wr2SCAN        
                                                                         
We gratefully acknowledge several colleagues who have allowed us to      
interface, adapt or use parts of their codes:                            
  Ed Valeev, F. Pavosevic, A. Kumar             : LibInt (2-el integral package), F12 methods 
  Garnet Chan, S. Sharma, J. Yang, R. Olivares  : DMRG                   
  Ulf Ekstrom                                   : XCFun DFT Library      
  Mihaly Kallay                                 : mrcc  (arbitrary order and MRCC methods)
  Frank Weinhold                                : gennbo (NPA and NBO analysis)           
  Simon Mueller                                 : openCOSMO-RS                            
  Christopher J. Cramer and Donald G. Truhlar   : smd solvation model                     
  S Lehtola, MJT Oliveira, MAL Marques          : LibXC Library                           
  Liviu Ungur et al                             : ANISO software                          


 Your calculation uses the libint2 library for the computation of 2-el integrals
 For citations please refer to: http://libint.valeyev.net

 Your ORCA version has been built with support for libXC version: 7.0.0
 For citations please refer to: https://libxc.gitlab.io

 This ORCA versions uses:
   CBLAS   interface :  Fast vector & matrix operations
   LAPACKE interface :  Fast linear algebra routines
   SCALAPACK package :  Parallel linear algebra routines
   Shared memory     :  Shared parallel matrices
   BLAS/LAPACK       :  OpenBLAS 0.3.29  USE64BITINT DYNAMIC_ARCH NO_AFFINITY SkylakeX SINGLE_THREADED
        Core in use  :  SkylakeX
   Copyright (c) 2011-2014, The OpenBLAS Project


  ***********************************
  * Starting time: Sun Mar 22 19:19:24 2026
  * Host name:     5dbf61b65fb0
  * Process ID:    54
  * Working dir.:  /kaggle/working
  ***********************************

NOTE: MaxCore=3000 MB was set to SCF,MP2,MDCI,CIPSI,MRCI,RASCI and CIS
      => If you want to overwrite this, your respective input block should be placed after the MaxCore statement
Your calculation utilizes the atom-pairwise dispersion correction
with the Becke-Johnson damping scheme (D3BJ)


Your calculation utilizes the SMD solvation module
Please cite in your paper:
Marenich, A. V.; Cramer, C. J.; Truhlar, D. G. J. Phys. Chem. B 2009, 113, 6378 

Warning: RI is on but no J-basis has been assigned. Assigning Def2/J (nothing to worry about!)
================================================================================

----- Orbital basis set information -----
Your calculation utilizes the basis: 6-31G(d,p)
   H-He, Li-Ne : W. J. Hehre, R. Ditchfield and J.A. Pople, J. Chem. Phys. 56, 2257 (1972).
                 Note: He and Ne are unpublished basis sets taken from the Gaussian program.
                 Note: Li and B from J. D. Dill and J. A. Pople, J. Chem. Phys. 62, 2921 (1975).
   Na - Ar     : M. M. Francl, W. J. Pietro, W. J. Hehre, J. S. Binkley, M. S. Gordon, 
                 D. J. DeFrees and J. A. Pople, J. Chem. Phys. 77, 3654 (1982).
   K - Zn      : V. A. Rassolov, J. A. Pople, M. A. Ratner, and T. L. Windus, J. Chem. Phys. 109, 1223 (1998).

----- AuxJ basis set information -----
Your calculation utilizes the auxiliary basis: def2/J
   H-Rn: F. Weigend, Phys. Chem. Chem. Phys. 8, 1057 (2006).
   Fr-Lr: K. Eichkorn, F. Weigend, O. Treutler, R. Ahlrichs; Theor. Chem. Acc. 97, 119 (1997).

================================================================================
                                        WARNINGS
                       Please study these warnings very carefully!
================================================================================


WARNING: Geometry Optimization
  ===> : Switching off AutoStart
         For restart on a previous wavefunction, please use MOREAD

================================================================================
                                       INPUT FILE
================================================================================
NAME = /kaggle/working/Nal-1/Nal_InterFrag.inp
|  1> 
|  2> !RKS B3LYP 6-31G(d,p) TightSCF Opt D3BJ
|  3>  
|  4> %pal nprocs 2 end
|  5> %maxcore 3000
|  6> 
|  7> %cpcm
|  8>   smd true
|  9>   SMDsolvent "WATER"
| 10>   end
| 11> 
| 12> %scf
| 13>   MaxIter 1000
| 14>   SOSCF Start 0.00033
| 15>   end
| 16> end
| 17> 
| 18> %output
| 19>   PrintLevel Normal
| 20>   Print[ P_OrbEn ] 2        # print ALL orbital energies (not just up to LUMO+9) :contentReference[oaicite:10]{index=10}
| 21>   XYZFile true              # writes basename.xyz (handy for reuse) :contentReference[oaicite:11]{index=11}
| 22>   end
| 23> 
| 24> *xyz 0 1
| 25> O       -2.682800000      0.930400000      1.455400000
| 26> O       -4.261300000      0.263000000     -0.039600000
| 27> N       -2.931800000     -2.163600000     -0.192200000
| 28> C       -1.265200000     -0.561300000     -1.040500000
| 29> C       -0.121100000      0.319000000     -0.642700000
| 30> C        1.125400000     -0.205300000     -0.263500000
| 31> C       -2.158500000     -0.967400000      0.147000000
| 32> C        2.166600000      0.680600000      0.102700000
| 33> C       -0.337900000      1.697100000     -0.660900000
| 34> C        1.361400000     -1.589400000     -0.239600000
| 35> C        1.930500000      2.064900000      0.078800000
| 36> C        0.685900000      2.568200000     -0.300700000
| 37> C        3.413100000      0.156400000      0.482000000
| 38> C       -3.160300000      0.122000000      0.474000000
| 39> C        2.606000000     -2.092800000      0.139900000
| 40> C        3.629900000     -1.221700000      0.499900000
| 41> H       -1.873100000     -0.035200000     -1.792100000
| 42> H       -0.903600000     -1.440300000     -1.586900000
| 43> H       -1.566300000     -1.201700000      1.038700000
| 44> H       -1.298900000      2.109800000     -0.956500000
| 45> H        0.599200000     -2.320100000     -0.491100000
| 46> H        2.716200000      2.764600000      0.356200000
| 47> H        0.516800000      3.641000000     -0.315500000
| 48> H        4.227600000      0.818700000      0.767700000
| 49> H        2.774900000     -3.165600000      0.158500000
| 50> H       -3.517800000     -1.983200000     -1.006300000
| 51> H       -3.559400000     -2.402000000      0.574500000
| 52> H        4.598200000     -1.614500000      0.796300000
| 53> H       -3.320800000      1.637900000      1.689000000
| 54> *
| 55> 
| 56>                          ****END OF INPUT****
================================================================================

                       *****************************
                       * Geometry Optimization Run *
                       *****************************

Geometry optimization settings:
Update method            Update   .... BFGS
Choice of coordinates    CoordSys .... (2022) Redundant Internals
Initial Hessian          InHess   .... Almloef's Model
Max. no of cycles        MaxIter  .... 87

Convergence Tolerances:
Energy Change            TolE     ....  5.0000e-06 Eh
Max. Gradient            TolMAXG  ....  3.0000e-04 Eh/bohr
RMS Gradient             TolRMSG  ....  1.0000e-04 Eh/bohr
Max. Displacement        TolMAXD  ....  4.0000e-03 bohr
RMS Displacement         TolRMSD  ....  2.0000e-03 bohr
Strict Convergence                .... False

------------------------------------------------------------------------------
                        ORCA OPTIMIZATION COORDINATE SETUP
------------------------------------------------------------------------------

The optimization will be done in redundant internal coordinates (2022)
Making redundant internal coordinates   ...  (2022 redundants) done
Evaluating the initial hessian          ...  (Almloef) done
Evaluating the coordinates              ...  done
Calculating the B-matrix                .... done
Calculating the G-matrix                .... done
The number of degrees of freedom        ....  146

    -----------------------------------------------------------------
                    Redundant Internal Coordinates


    -----------------------------------------------------------------
         Definition                    Initial Value    Approx d2E/dq
    -----------------------------------------------------------------
      1. B(C   4,C   3)                  1.4974         0.421139   
      2. B(C   5,C   4)                  1.4044         0.592521   
      3. B(C   6,N   2)                  1.4642         0.426050   
      4. B(C   6,C   3)                  1.5405         0.359474   
      5. B(C   7,C   5)                  1.4153         0.569384   
      6. B(C   8,C   4)                  1.3952         0.613047   
      7. B(C   9,C   5)                  1.4043         0.592867   
      8. B(C  10,C   7)                  1.4045         0.592401   
      9. B(C  11,C  10)                  1.3951         0.613154   
     10. B(C  11,C   8)                  1.3917         0.620991   
     11. B(C  12,C   7)                  1.4044         0.592544   
     12. B(C  13,C   6)                  1.5157         0.393735   
     13. B(C  13,O   1)                  1.2231         1.033293   
     14. B(C  13,O   0)                  1.3582         0.628979   
     15. B(C  14,C   9)                  1.3952         0.613073   
     16. B(C  15,C  14)                  1.3917         0.620941   
     17. B(C  15,C  12)                  1.3952         0.613056   
     18. B(H  16,C   3)                  1.1006         0.346401   
     19. B(H  17,C   3)                  1.0963         0.351817   
     20. B(H  18,C   6)                  1.0958         0.352539   
     21. B(H  19,C   8)                  1.0868         0.364304   
     22. B(H  20,C   9)                  1.0854         0.366218   
     23. B(H  21,C  10)                  1.0881         0.362687   
     24. B(H  22,C  11)                  1.0861         0.365234   
     25. B(H  23,C  12)                  1.0880         0.362797   
     26. B(H  24,C  14)                  1.0862         0.365198   
     27. B(H  25,N   2)                  1.0192         0.418381   
     28. B(H  26,N   2)                  1.0191         0.418496   
     29. B(H  27,C  15)                  1.0862         0.365212   
     30. B(H  28,O   0)                  0.9809         0.481525   
     31. A(C  13,O   0,H  28)          111.8834         0.366173   
     32. A(C   6,N   2,H  26)          110.0032         0.334850   
     33. A(H  25,N   2,H  26)          106.7544         0.300029   
     34. A(C   6,N   2,H  25)          110.1272         0.334835   
     35. A(C   4,C   3,H  16)          108.8103         0.328676   
     36. A(C   4,C   3,C   6)          113.1577         0.368451   
     37. A(H  16,C   3,H  17)          103.0080         0.288024   
     38. A(C   4,C   3,H  17)          110.5941         0.329519   
     39. A(C   6,C   3,H  17)          111.3517         0.321053   
     40. A(C   6,C   3,H  16)          109.3999         0.320240   
     41. A(C   3,C   4,C   5)          122.0328         0.401917   
     42. A(C   5,C   4,C   8)          120.6765         0.429673   
     43. A(C   3,C   4,C   8)          117.2907         0.404338   
     44. A(C   7,C   5,C   9)          119.2695         0.424067   
     45. A(C   4,C   5,C   7)          119.2838         0.424023   
     46. A(C   4,C   5,C   9)          121.4468         0.427102   
     47. A(C   3,C   6,H  18)          111.7326         0.321161   
     48. A(N   2,C   6,H  18)          107.4129         0.328278   
     49. A(N   2,C   6,C   3)          110.0624         0.366880   
     50. A(C  13,C   6,H  18)          109.5922         0.325994   
     51. A(C   3,C   6,C  13)          111.1069         0.364227   
     52. A(N   2,C   6,C  13)          106.7438         0.372665   
     53. A(C  10,C   7,C  12)          121.4449         0.427044   
     54. A(C   5,C   7,C  12)          119.2881         0.424026   
     55. A(C   5,C   7,C  10)          119.2670         0.424008   
     56. A(C   4,C   8,C  11)          120.0391         0.433311   
     57. A(C   4,C   8,H  19)          121.0662         0.352929   
     58. A(C  11,C   8,H  19)          118.8945         0.353699   
     59. A(C   5,C   9,C  14)          120.6762         0.429721   
     60. A(C  14,C   9,H  20)          116.5235         0.353244   
     61. A(C   5,C   9,H  20)          122.7905         0.351247   
     62. A(C   7,C  10,C  11)          120.6749         0.429671   
     63. A(C  11,C  10,H  21)          118.7876         0.352673   
     64. A(C   7,C  10,H  21)          120.5375         0.350627   
     65. A(C   8,C  11,C  10)          120.0588         0.433324   
     66. A(C  10,C  11,H  22)          119.9287         0.353091   
     67. A(C   8,C  11,H  22)          120.0125         0.353852   
     68. A(C   7,C  12,C  15)          120.6684         0.429677   
     69. A(C  15,C  12,H  23)          118.7899         0.352682   
     70. A(C   7,C  12,H  23)          120.5417         0.350659   
     71. A(O   0,C  13,O   1)          123.4565         0.471250   
     72. A(O   1,C  13,C   6)          125.9624         0.435650   
     73. A(O   0,C  13,C   6)          110.5682         0.398811   
     74. A(C   9,C  14,C  15)          120.0561         0.433308   
     75. A(C  15,C  14,H  24)          119.9596         0.353841   
     76. A(C   9,C  14,H  24)          119.9838         0.353078   
     77. A(C  14,C  15,H  27)          120.0079         0.353843   
     78. A(C  12,C  15,H  27)          119.9504         0.353078   
     79. A(C  12,C  15,C  14)          120.0417         0.433306   
     80. D(C   5,C   4,C   3,H  16)   -148.2075         0.013113   
     81. D(C   5,C   4,C   3,H  17)    -35.7490         0.013113   
     82. D(C   5,C   4,C   3,C   6)     89.9660         0.013113   
     83. D(C   8,C   4,C   3,C   6)    -90.0019         0.013113   
     84. D(C   8,C   4,C   3,H  16)     31.8246         0.013113   
     85. D(C   7,C   5,C   4,C   3)   -179.9523         0.024171   
     86. D(C   9,C   5,C   4,C   8)   -179.9901         0.024171   
     87. D(C   9,C   5,C   4,C   3)      0.0430         0.024171   
     88. D(C   7,C   5,C   4,C   8)      0.0146         0.024171   
     89. D(H  18,C   6,N   2,H  25)    178.6081         0.015476   
     90. D(C  13,C   6,N   2,H  26)    -56.2620         0.015476   
     91. D(C  13,C   6,N   2,H  25)     61.1343         0.015476   
     92. D(C   3,C   6,N   2,H  25)    -59.5440         0.015476   
     93. D(N   2,C   6,C   3,C   4)   -159.7871         0.010369   
     94. D(C  13,C   6,C   3,H  17)   -152.4958         0.010369   
     95. D(C  13,C   6,C   3,H  16)    -39.2993         0.010369   
     96. D(C  13,C   6,C   3,C   4)     82.1960         0.010369   
     97. D(N   2,C   6,C   3,H  17)    -34.4790         0.010369   
     98. D(N   2,C   6,C   3,H  16)     78.7176         0.010369   
     99. D(C   3,C   6,N   2,H  26)   -176.9404         0.015476   
    100. D(C  12,C   7,C   5,C   9)      0.0003         0.022237   
    101. D(C  12,C   7,C   5,C   4)    179.9957         0.022237   
    102. D(C  10,C   7,C   5,C   9)   -179.9989         0.022237   
    103. D(C  10,C   7,C   5,C   4)     -0.0035         0.022237   
    104. D(H  19,C   8,C   4,C   5)    179.7910         0.025971   
    105. D(H  19,C   8,C   4,C   3)     -0.2406         0.025971   
    106. D(C  11,C   8,C   4,C   5)     -0.0201         0.025971   
    107. D(C  11,C   8,C   4,C   3)    179.9483         0.025971   
    108. D(H  20,C   9,C   5,C   4)     -1.1691         0.024201   
    109. D(C  14,C   9,C   5,C   7)      0.0011         0.024201   
    110. D(C  14,C   9,C   5,C   4)   -179.9941         0.024201   
    111. D(H  20,C   9,C   5,C   7)    178.8262         0.024201   
    112. D(H  21,C  10,C   7,C  12)      0.0067         0.024161   
    113. D(H  21,C  10,C   7,C   5)   -179.9941         0.024161   
    114. D(C  11,C  10,C   7,C  12)    179.9987         0.024161   
    115. D(C  11,C  10,C   7,C   5)     -0.0021         0.024161   
    116. D(H  22,C  11,C  10,H  21)      0.0337         0.025981   
    117. D(C   8,C  11,C  10,H  21)    179.9888         0.025981   
    118. D(C   8,C  11,C  10,C   7)     -0.0033         0.025981   
    119. D(H  22,C  11,C   8,H  19)      0.1542         0.026690   
    120. D(H  22,C  11,C   8,C   4)    179.9695         0.026690   
    121. D(H  22,C  11,C  10,C   7)   -179.9584         0.025981   
    122. D(C  10,C  11,C   8,H  19)   -179.8009         0.026690   
    123. D(C  10,C  11,C   8,C   4)      0.0144         0.026690   
    124. D(H  23,C  12,C   7,C  10)      0.0212         0.024173   
    125. D(H  23,C  12,C   7,C   5)   -179.9780         0.024173   
    126. D(C  15,C  12,C   7,C  10)   -179.9975         0.024173   
    127. D(C  15,C  12,C   7,C   5)      0.0033         0.024173   
    128. D(O   1,C  13,C   6,N   2)    -33.3154         0.011522   
    129. D(O   0,C  13,C   6,H  18)     29.3868         0.011522   
    130. D(O   0,C  13,C   6,C   3)    -94.5783         0.011522   
    131. D(O   0,C  13,C   6,N   2)    145.4136         0.011522   
    132. D(C   6,C  13,O   0,H  28)   -179.4091         0.029087   
    133. D(O   1,C  13,C   6,C   3)     86.6927         0.011522   
    134. D(O   1,C  13,O   0,H  28)     -0.6421         0.029087   
    135. D(H  24,C  14,C   9,H  20)      0.8395         0.025974   
    136. D(H  24,C  14,C   9,C   5)    179.7355         0.025974   
    137. D(C  15,C  14,C   9,H  20)   -178.9023         0.025974   
    138. D(C  15,C  14,C   9,C   5)     -0.0062         0.025974   
    139. D(H  27,C  15,C  12,H  23)      0.0521         0.025972   
    140. D(H  27,C  15,C  12,C   7)   -179.9295         0.025972   
    141. D(C  14,C  15,C  12,H  23)    179.9732         0.025972   
    142. D(C  14,C  15,C  12,C   7)     -0.0084         0.025972   
    143. D(H  27,C  15,C  14,H  24)      0.1891         0.026685   
    144. D(H  27,C  15,C  14,C   9)    179.9309         0.026685   
    145. D(C  12,C  15,C  14,H  24)   -179.7320         0.026685   
    146. D(C  12,C  15,C  14,C   9)      0.0099         0.026685   
    -----------------------------------------------------------------

Number of atoms                         .... 29
Number of degrees of freedom            .... 146


         *************************************************************
         *                GEOMETRY OPTIMIZATION CYCLE   1            *
         *************************************************************
---------------------------------
CARTESIAN COORDINATES (ANGSTROEM)
---------------------------------
  O     -2.682800    0.930400    1.455400
  O     -4.261300    0.263000   -0.039600
  N     -2.931800   -2.163600   -0.192200
  C     -1.265200   -0.561300   -1.040500
  C     -0.121100    0.319000   -0.642700
  C      1.125400   -0.205300   -0.263500
  C     -2.158500   -0.967400    0.147000
  C      2.166600    0.680600    0.102700
  C     -0.337900    1.697100   -0.660900
  C      1.361400   -1.589400   -0.239600
  C      1.930500    2.064900    0.078800
  C      0.685900    2.568200   -0.300700
  C      3.413100    0.156400    0.482000
  C     -3.160300    0.122000    0.474000
  C      2.606000   -2.092800    0.139900
  C      3.629900   -1.221700    0.499900
  H     -1.873100   -0.035200   -1.792100
  H     -0.903600   -1.440300   -1.586900
  H     -1.566300   -1.201700    1.038700
  H     -1.298900    2.109800   -0.956500
  H      0.599200   -2.320100   -0.491100
  H      2.716200    2.764600    0.356200
  H      0.516800    3.641000   -0.315500
  H      4.227600    0.818700    0.767700
  H      2.774900   -3.165600    0.158500
  H     -3.517800   -1.983200   -1.006300
  H     -3.559400   -2.402000    0.574500
  H      4.598200   -1.614500    0.796300
  H     -3.320800    1.637900    1.689000

----------------------------
CARTESIAN COORDINATES (A.U.)
----------------------------
  NO LB      ZA    FRAG     MASS         X           Y           Z
   0 O     8.0000    0    15.999   -5.069757    1.758201    2.750307
   1 O     8.0000    0    15.999   -8.052690    0.496998   -0.074833
   2 N     7.0000    0    14.007   -5.540299   -4.088611   -0.363205
   3 C     6.0000    0    12.011   -2.390882   -1.060703   -1.966260
   4 C     6.0000    0    12.011   -0.228846    0.602823   -1.214527
   5 C     6.0000    0    12.011    2.126698   -0.387961   -0.497943
   6 C     6.0000    0    12.011   -4.078974   -1.828121    0.277790
   7 C     6.0000    0    12.011    4.094281    1.286148    0.194075
   8 C     6.0000    0    12.011   -0.638538    3.207054   -1.248920
   9 C     6.0000    0    12.011    2.572673   -3.003531   -0.452778
  10 C     6.0000    0    12.011    3.648116    3.902095    0.148910
  11 C     6.0000    0    12.011    1.296163    4.853195   -0.568241
  12 C     6.0000    0    12.011    6.449824    0.295553    0.910848
  13 C     6.0000    0    12.011   -5.972102    0.230547    0.895730
  14 C     6.0000    0    12.011    4.924626   -3.954819    0.264373
  15 C     6.0000    0    12.011    6.859517   -2.308678    0.944674
  16 H     1.0000    0     1.008   -3.539646   -0.066518   -3.386578
  17 H     1.0000    0     1.008   -1.707557   -2.721773   -2.998806
  18 H     1.0000    0     1.008   -2.959878   -2.270884    1.962859
  19 H     1.0000    0     1.008   -2.454565    3.986944   -1.807523
  20 H     1.0000    0     1.008    1.132324   -4.384354   -0.928045
  21 H     1.0000    0     1.008    5.132874    5.224337    0.673120
  22 H     1.0000    0     1.008    0.976610    6.880493   -0.596209
  23 H     1.0000    0     1.008    7.989006    1.547119    1.450743
  24 H     1.0000    0     1.008    5.243801   -5.982117    0.299522
  25 H     1.0000    0     1.008   -6.647679   -3.747705   -1.901631
  26 H     1.0000    0     1.008   -6.726291   -4.539122    1.085648
  27 H     1.0000    0     1.008    8.689339   -3.050963    1.504789
  28 H     1.0000    0     1.008   -6.275403    3.095182    3.191747

--------------------------------
INTERNAL COORDINATES (ANGSTROEM)
--------------------------------
 O      0   0   0     0.000000000000     0.00000000     0.00000000
 O      1   0   0     2.274227343517     0.00000000     0.00000000
 N      2   1   0     2.771144992598    87.71777169     0.00000000
 C      3   2   1     2.462627405841    76.93266897   297.08871286
 C      4   3   2     1.497376953209   143.90950119    91.98246282
 C      5   4   3     1.404437745149   122.03275496    70.84394515
 C      3   2   1     1.464221284506    61.65648692   332.14193746
 C      6   5   4     1.415280428042   119.28377366   180.04773394
 C      5   4   3     1.395167764106   117.29072423   250.87599058
 C      6   5   4     1.404279181644   121.44675975     0.04303157
 C      8   6   5     1.404493114971   119.26698913     0.00000000
 C      9   5   4     1.391662922550   120.03905063   179.94826885
 C      8   6   5     1.404427420695   119.28814806   179.99571400
 C      2   1   3     1.223056400989    29.88443468   342.64291312
 C     10   6   5     1.395156252898   120.67624886   180.00585023
 C     15  10   6     1.391684741599   120.05608070     0.00000000
 H      4   3   2     1.100557213415    99.93118699   309.24307810
 H      4   3   2     1.096334127901    82.71687935   207.23836856
 H      7   3   2     1.095776537438   107.41289077   130.35530153
 H      9   5   4     1.086840213647   121.06622477   359.75942402
 H     10   6   5     1.085414013177   122.79047521   358.83090603
 H     11   8   6     1.088051166076   120.53747605   180.00592706
 H     12   9   5     1.086146256266   120.01251020   179.96946907
 H     13   8   6     1.087968763338   120.54168353   180.02200277
 H     15  10   6     1.086173563479   119.98377083   179.73554967
 H      3   2   1     1.019165820659    67.24025156   201.57791011
 H      3   2   1     1.019090383626    82.41242636    89.78464134
 H     16  15  10     1.086162828493   120.00788609   179.93091063
 H      1   2   3     0.980902242836    85.22584067   196.75916671

---------------------------
INTERNAL COORDINATES (A.U.)
---------------------------
 O      0   0   0     0.000000000000     0.00000000     0.00000000
 O      1   0   0     4.297666845522     0.00000000     0.00000000
 N      2   1   0     5.236705113397    87.71777169     0.00000000
 C      3   2   1     4.653691366929    76.93266897   297.08871286
 C      4   3   2     2.829632360810   143.90950119    91.98246282
 C      5   4   3     2.654002710474   122.03275496    70.84394515
 C      3   2   1     2.766977227174    61.65648692   332.14193746
 C      6   5   4     2.674492411699   119.28377366   180.04773394
 C      5   4   3     2.636484985035   117.29072423   250.87599058
 C      6   5   4     2.653703068875   121.44675975     0.04303157
 C      8   6   5     2.654107344273   119.26698913     0.00000000
 C      9   5   4     2.629861794352   120.03905063   179.94826885
 C      8   6   5     2.653983200083   119.28814806   179.99571400
 C      2   1   3     2.311241644208    29.88443468   342.64291312
 C     10   6   5     2.636463232005   120.67624886   180.00585023
 C     15  10   6     2.629903026379   120.05608070     0.00000000
 H      4   3   2     2.079751728066    99.93118699   309.24307810
 H      4   3   2     2.071771253004    82.71687935   207.23836856
 H      7   3   2     2.070717559735   107.41289077   130.35530153
 H      9   5   4     2.053830355125   121.06622477   359.75942402
 H     10   6   5     2.051135226824   122.79047521   358.83090603
 H     11   8   6     2.056118723578   120.53747605   180.00592706
 H     12   9   5     2.052518965726   120.01251020   179.96946907
 H     13   8   6     2.055963004970   120.54168353   180.02200277
 H     15  10   6     2.052570568880   119.98377083   179.73554967
 H      3   2   1     1.925944286099    67.24025156   201.57791011
 H      3   2   1     1.925801730767    82.41242636    89.78464134
 H     16  15  10     2.052550282697   120.00788609   179.93091063
 H      1   2   3     1.853636603108    85.22584067   196.75916671

---------------------
BASIS SET INFORMATION
---------------------
There are 4 groups of distinct atoms

 Group   1 Type O   : 10s4p1d contracted to 3s2p1d pattern {631/31/1}
 Group   2 Type N   : 10s4p1d contracted to 3s2p1d pattern {631/31/1}
 Group   3 Type C   : 10s4p1d contracted to 3s2p1d pattern {631/31/1}
 Group   4 Type H   : 4s1p contracted to 2s1p pattern {31/1}

Atom   0O    basis set group =>   1
Atom   1O    basis set group =>   1
Atom   2N    basis set group =>   2
Atom   3C    basis set group =>   3
Atom   4C    basis set group =>   3
Atom   5C    basis set group =>   3
Atom   6C    basis set group =>   3
Atom   7C    basis set group =>   3
Atom   8C    basis set group =>   3
Atom   9C    basis set group =>   3
Atom  10C    basis set group =>   3
Atom  11C    basis set group =>   3
Atom  12C    basis set group =>   3
Atom  13C    basis set group =>   3
Atom  14C    basis set group =>   3
Atom  15C    basis set group =>   3
Atom  16H    basis set group =>   4
Atom  17H    basis set group =>   4
Atom  18H    basis set group =>   4
Atom  19H    basis set group =>   4
Atom  20H    basis set group =>   4
Atom  21H    basis set group =>   4
Atom  22H    basis set group =>   4
Atom  23H    basis set group =>   4
Atom  24H    basis set group =>   4
Atom  25H    basis set group =>   4
Atom  26H    basis set group =>   4
Atom  27H    basis set group =>   4
Atom  28H    basis set group =>   4
---------------------------------
AUXILIARY/J BASIS SET INFORMATION
---------------------------------
There are 4 groups of distinct atoms

 Group   1 Type O   : 12s5p4d2f1g contracted to 6s4p3d1f1g pattern {711111/2111/211/2/1}
 Group   2 Type N   : 12s5p4d2f1g contracted to 6s4p3d1f1g pattern {711111/2111/211/2/1}
 Group   3 Type C   : 12s5p4d2f1g contracted to 6s4p3d1f1g pattern {711111/2111/211/2/1}
 Group   4 Type H   : 5s2p1d contracted to 3s1p1d pattern {311/2/1}

Atom   0O    basis set group =>   1
Atom   1O    basis set group =>   1
Atom   2N    basis set group =>   2
Atom   3C    basis set group =>   3
Atom   4C    basis set group =>   3
Atom   5C    basis set group =>   3
Atom   6C    basis set group =>   3
Atom   7C    basis set group =>   3
Atom   8C    basis set group =>   3
Atom   9C    basis set group =>   3
Atom  10C    basis set group =>   3
Atom  11C    basis set group =>   3
Atom  12C    basis set group =>   3
Atom  13C    basis set group =>   3
Atom  14C    basis set group =>   3
Atom  15C    basis set group =>   3
Atom  16H    basis set group =>   4
Atom  17H    basis set group =>   4
Atom  18H    basis set group =>   4
Atom  19H    basis set group =>   4
Atom  20H    basis set group =>   4
Atom  21H    basis set group =>   4
Atom  22H    basis set group =>   4
Atom  23H    basis set group =>   4
Atom  24H    basis set group =>   4
Atom  25H    basis set group =>   4
Atom  26H    basis set group =>   4
Atom  27H    basis set group =>   4
Atom  28H    basis set group =>   4


           ************************************************************
           *        Program running with 2 parallel MPI-processes     *
           *              working on a common directory               *
           ************************************************************
------------------------------------------------------------------------------
                             ORCA STARTUP CALCULATIONS
                           -- RI-GTO INTEGRALS CHOSEN --
------------------------------------------------------------------------------
------------------------------------------------------------------------------
                   ___                                                        
                  /   \      - P O W E R E D   B Y -                         
                 /     \                                                     
                 |  |  |   _    _      __       _____    __    __             
                 |  |  |  | |  | |    /  \     |  _  \  |  |  /  |          
                  \  \/   | |  | |   /    \    | | | |  |  | /  /          
                 / \  \   | |__| |  /  /\  \   | |_| |  |  |/  /          
                |  |  |   |  __  | /  /__\  \  |    /   |      \           
                |  |  |   | |  | | |   __   |  |    \   |  |\   \          
                \     /   | |  | | |  |  |  |  | |\  \  |  | \   \       
                 \___/    |_|  |_| |__|  |__|  |_| \__\ |__|  \__/        
                                                                              
                      - O R C A' S   B I G   F R I E N D -                    
                                      &                                       
                       - I N T E G R A L  F E E D E R -                       
                                                                              
 v1 FN, 2020, v2 2021, v3 2022-2024                                           
------------------------------------------------------------------------------


----------------------
SHARK INTEGRAL PACKAGE
----------------------

Number of atoms                             ...     29
Number of basis functions                   ...    289
Number of shells                            ...    135
Maximum angular momentum                    ...      2
Integral batch strategy                     ... SHARK/LIBINT Hybrid
RI-J (if used) integral strategy            ... SPLIT-RIJ (Revised 2003 algorithm where possible)
Printlevel                                  ...      1
Contraction scheme used                     ... SEGMENTED contraction
Prescreening option                         ... SCHWARTZ
   Thresh                                   ... 2.500e-11
   Tcut                                     ... 2.500e-12
   Tpresel                                  ... 2.500e-12 
Coulomb Range Separation                    ... NOT USED
Exchange Range Separation                   ... NOT USED
Multipole approximations                    ... NOT USED
Finite Nucleus Model                        ... NOT USED
CABS basis                                  ... NOT available
Auxiliary Coulomb fitting basis             ... AVAILABLE
   # of basis functions in Aux-J            ...    927
   # of shells in Aux-J                     ...    305
   Maximum angular momentum in Aux-J        ...      4
Auxiliary J/K fitting basis                 ... NOT available
Auxiliary Correlation fitting basis         ... NOT available
Auxiliary 'external' fitting basis          ... NOT available

Checking pre-screening integrals            ... done (  0.0 sec) Dimension = 135
   => SHARK Basis and OBASIS are compatible. Storing Pre-screening
Shell pair information
Shell pair cut-off parameter TPreSel        ...   2.5e-12
Total number of shell pairs                 ...      9180
Shell pairs after pre-screening             ...      7311
Total number of primitive shell pairs       ...     47040
Primitive shell pairs kept                  ...     22667
          la=0 lb=0:   2200 shell pairs
          la=1 lb=0:   2679 shell pairs
          la=1 lb=1:    856 shell pairs
          la=2 lb=0:    908 shell pairs
          la=2 lb=1:    568 shell pairs
          la=2 lb=2:    100 shell pairs

Checking whether 4 symmetric matrices of dimension 289 fit in memory
:Max Core in MB      =   3000.00
 MB in use           =     13.31
 MB left             =   2986.69
 MB needed           =      1.28
 Data fit in memory  = YES
Calculating RI/J V-Matrix + Cholesky decomp.... done (  0.1 sec)
Calculating Nuclear repulsion               ... done (  0.0 sec) ENN=   1047.803928802834 Eh

Diagonalization of the overlap matrix:
Smallest eigenvalue                        ... 2.557e-04
Time for diagonalization                   ...    0.011 sec
Threshold for overlap eigenvalues          ... 1.000e-07
Number of eigenvalues below threshold      ... 0
Time for construction of square roots      ...    0.004 sec
Total time needed                          ...    0.016 sec

-------------------
DFT GRID GENERATION
-------------------

General Integration Accuracy     IntAcc      ... 4.388
Radial Grid Type                 RadialGrid  ... OptM3 with GC (2021)
Angular Grid (max. ang.)         AngularGrid ... 4 (Lebedev-302)
Angular grid pruning method      GridPruning ... 4 (adaptive)
Weight generation scheme         WeightScheme... mBecke (2022)
Basis function cutoff            BFCut       ... 1.0000e-11
Integration weight cutoff        WCut        ... 1.0000e-14
Partially contracted basis set               ... off
Rotationally invariant grid construction     ... off
Angular grids for H and He will be reduced by one unit

Total number of grid points                  ...   137205
Total number of batches                      ...     2158
Average number of points per batch           ...       63
Average number of grid points per atom       ...     4731

--------------------
COSX GRID GENERATION
--------------------

GRIDX 1
-------
General Integration Accuracy     IntAcc      ... 3.816
Radial Grid Type                 RadialGrid  ... OptM3 with GC (2021)
Angular Grid (max. ang.)         AngularGrid ... 1 (Lebedev-50)
Angular grid pruning method      GridPruning ... 4 (adaptive)
Weight generation scheme         WeightScheme... mBecke (2022)
Basis function cutoff            BFCut       ... 1.0000e-11
Integration weight cutoff        WCut        ... 1.0000e-14
Partially contracted basis set               ... on
Rotationally invariant grid construction     ... off
Angular grids for H and He will be reduced by one unit

Total number of grid points                  ...    17449
Total number of batches                      ...      151
Average number of points per batch           ...      115
Average number of grid points per atom       ...      602
UseSFitting                                  ... on

GRIDX 2
-------
General Integration Accuracy     IntAcc      ... 4.020
Radial Grid Type                 RadialGrid  ... OptM3 with GC (2021)
Angular Grid (max. ang.)         AngularGrid ... 2 (Lebedev-110)
Angular grid pruning method      GridPruning ... 4 (adaptive)
Weight generation scheme         WeightScheme... mBecke (2022)
Basis function cutoff            BFCut       ... 1.0000e-11
Integration weight cutoff        WCut        ... 1.0000e-14
Partially contracted basis set               ... on
Rotationally invariant grid construction     ... off
Angular grids for H and He will be reduced by one unit

Total number of grid points                  ...    37934
Total number of batches                      ...      310
Average number of points per batch           ...      122
Average number of grid points per atom       ...     1308
UseSFitting                                  ... on

GRIDX 3
-------
General Integration Accuracy     IntAcc      ... 4.338
Radial Grid Type                 RadialGrid  ... OptM3 with GC (2021)
Angular Grid (max. ang.)         AngularGrid ... 3 (Lebedev-194)
Angular grid pruning method      GridPruning ... 4 (adaptive)
Weight generation scheme         WeightScheme... mBecke (2022)
Basis function cutoff            BFCut       ... 1.0000e-11
Integration weight cutoff        WCut        ... 1.0000e-14
Partially contracted basis set               ... on
Rotationally invariant grid construction     ... off
Angular grids for H and He will be reduced by one unit

Total number of grid points                  ...    82986
Total number of batches                      ...      664
Average number of points per batch           ...      124
Average number of grid points per atom       ...     2862
UseSFitting                                  ... on
Grids setup in   3.4 sec
Initializing property integral containers    ... done (  0.0 sec)

SHARK setup successfully completed in   3.8 seconds

Maximum memory used throughout the entire STARTUP-calculation: 47.7 MB


           ************************************************************
           *        Program running with 2 parallel MPI-processes     *
           *              working on a common directory               *
           ************************************************************
-------------------------------------------------------------------------------
                                 ORCA GUESS
                   Start orbitals & Density for SCF / CASSCF
-------------------------------------------------------------------------------

------------
SCF SETTINGS
------------
Hamiltonian:
 Density Functional     Method          .... DFT(GTOs)
 Exchange Functional    Exchange        .... B88
   X-Alpha parameter    XAlpha          ....  0.666667
   Becke's b parameter  XBeta           ....  0.004200
 Correlation Functional Correlation     .... LYP
 LDA part of GGA corr.  LDAOpt          .... VWN-5
 Gradients option       PostSCFGGA      .... off
 Hybrid DFT is turned on
   Fraction HF Exchange ScalHFX         ....  0.200000
   Scaling of DF-GGA-X  ScalDFX         ....  0.720000
   Scaling of DF-GGA-C  ScalDFC         ....  0.810000
   Scaling of DF-LDA-C  ScalLDAC        ....  1.000000
   Perturbative correction              ....  0.000000
   NL short-range parameter             ....  4.800000
 RI-approximation to the Coulomb term is turned on
   Number of AuxJ basis functions       .... 927
   RIJ-COSX (HFX calculated with COS-X)).... on


General Settings:
 Integral files         IntName         .... /kaggle/working/Nal-1/Nal_InterFrag
 Hartree-Fock type      HFTyp           .... RHF
 Total Charge           Charge          ....    0
 Multiplicity           Mult            ....    1
 Number of Electrons    NEL             ....  114
 Basis Dimension        Dim             ....  289
 Nuclear Repulsion      ENuc            ....   1047.8039288028 Eh

Convergence Acceleration:
 AO-DIIS                CNVDIIS         .... on
   Start iteration      DIISMaxIt       ....    12
   Startup error        DIISStart       ....  0.200000
   # of expansion vecs  DIISMaxEq       ....     5
   Bias factor          DIISBfac        ....   1.050
   Max. coefficient     DIISMaxC        ....  10.000
 MO-DIIS                CNVKDIIS        .... off
 Trust-Rad. Augm. Hess. CNVTRAH         .... auto
   Auto Start mean grad. ratio tolernc. ....  1.125000
   Auto Start start iteration           ....    50
   Auto Start num. interpolation iter.  ....    10
   Max. Number of Micro iterations      ....    24
   Max. Number of Macro iterations      .... Maxiter - #DIIS iter
   Number of Davidson start vectors     ....     2
   Converg. threshold    (grad. norm)   ....   1.000e-05
   Grad. Scal. Fac. for Micro threshold ....   0.100
   Minimum threshold for Micro iter.    ....   1.000e-02
   NR start threshold (gradient norm)   ....   1.000e-04
   Initial trust radius                 ....   0.400
   Minimum AH scaling param. (alpha)    ....   1.000
   Maximum AH scaling param. (alpha)    .... 1000.000
   Quad. conv. algorithm                .... NR
   White noise on init. David. guess    .... on
   Maximum white noise                  ....   0.010
   Pseudo random numbers                .... off
   Inactive MOs                         .... canonical
   Orbital update algorithm             .... Taylor
   Preconditioner                       .... Diag
   Full preconditioner red. dimension   ....   250
 SOSCF                 CNVSOSCF           .... on
   Start iteration     SOSCFMaxIt         ....   150
   Startup grad/error  SOSCFStart         ....  0.000330
   Hessian update      SOSCFHessUp        .... L-BFGS
   Autom. constraints  SOSCFAutoConstrain .... off
 Level Shifting         CNVShift        .... on
   Level shift para.    LevelShift      ....    0.2500
   Turn off err/grad.   ShiftErr        ....    0.0010
 Zerner damping         CNVZerner       .... off
 Static damping         CNVDamp         .... on
   Fraction old density DampFac         ....    0.7000
   Max. Damping (<1)    DampMax         ....    0.9800
   Min. Damping (>=0)   DampMin         ....    0.0000
   Turn off err/grad.   DampErr         ....    0.1000

SCF Procedure:
 Maximum # iterations   MaxIter         ....  1000
 SCF integral mode      SCFMode         .... Direct
   Integral package                     .... SHARK and LIBINT hybrid scheme
 Reset frequency        DirectResetFreq ....    20
 Integral Threshold     Thresh          ....  2.500e-11 Eh
 Primitive CutOff       TCut            ....  2.500e-12 Eh

Convergence Tolerance:
 Convergence Check Mode ConvCheckMode   .... Total+1el-Energy
 Convergence forced     ConvForced      .... 0
 Energy Change          TolE            ....  1.000e-08 Eh
 1-El. energy change                    ....  1.000e-05 Eh
 Orbital Gradient       TolG            ....  1.000e-05
 Orbital Rotation angle TolX            ....  1.000e-05
 DIIS Error             TolErr          ....  5.000e-07

------------------------------
INITIAL GUESS: MODEL POTENTIAL
------------------------------
Loading Hartree-Fock densities                     ... done
Calculating cut-offs                               ... done
Initializing the effective Hamiltonian             ... done
Setting up the integral package (SHARK)            ... done
Starting the Coulomb interaction                   ... done (   0.4 sec)
Making the grid                                    ... done (   0.4 sec)
Mapping shells                                     ... done
Starting the XC term evaluation                    ... done (   0.3 sec)
  promolecular density results
     # of electrons  =    113.993597826
     EX              =    -93.704962018
     EC              =     -3.873427288
     EX+EC           =    -97.578389305
Transforming the Hamiltonian                       ... done (   0.0 sec)
Diagonalizing the Hamiltonian                      ... done (   0.0 sec)
Back transforming the eigenvectors                 ... done (   0.0 sec)
Now organizing SCF variables                       ... done
                      ------------------
                      INITIAL GUESS DONE (   1.2 sec)
                      ------------------
             **** ENERGY FILE WAS UPDATED (/kaggle/working/Nal-1/Nal_InterFrag.en.tmp) ****
Finished Guess after   1.6 sec
Maximum memory used throughout the entire GUESS-calculation: 19.2 MB


           ************************************************************
           *        Program running with 2 parallel MPI-processes     *
           *              working on a common directory               *
           ************************************************************

-------------------------------------------------------------------------------------------
                                      ORCA LEAN-SCF
                              memory conserving SCF solver
-------------------------------------------------------------------------------------------

--------------------
CPCM SOLVATION MODEL
--------------------
CPCM parameters:
  Epsilon                                         ...      78.3550
  Refrac                                          ...       1.3328
  Rsolv                                           ...       1.3000
  Surface type                                    ... GAUSSIAN VDW
  Discretization scheme                           ... Constant charge density
    Threshold for H atoms                         ...       5.0000 (charges/Ang^2)
    Threshold for non-H atoms                     ...       5.0000 (charges/Ang^2)
  Epsilon function type                           ...         CPCM
Solvent:                                          ... WATER
SMD-CDS solvent descriptors:
  Soln                                            ...       1.3328
  Soln25                                          ...       1.3323
  Sola                                            ...       0.0000
  Solb                                            ...       0.0000
  Solg                                            ...       0.0000
  Solc                                            ...       0.0000
  Solh                                            ...       0.0000
Radii:
  Scheme                                          ... Element-dependent radii
  Radius for O  used is    2.8724 Bohr (=   1.5200 Ang.)
  Radius for N  used is    3.5716 Bohr (=   1.8900 Ang.)
  Radius for C  used is    3.4960 Bohr (=   1.8500 Ang.)
  Radius for H  used is    2.2677 Bohr (=   1.2000 Ang.)
Calculating surface                               ...        done! (  0.0s)
Cavity surface points                             ...         2176
Cavity Volume                                     ...    1478.6246
Cavity Surface-area                               ...     865.6738
Calculating surface distance matrix               ...        done! (  0.1s)
Performing Cholesky decomposition & store         ...        done! (  0.2s)
Overall time for CPCM initialization              ...                 0.3s

----------------------------------------D-I-I-S--------------------------------------------
Iteration    Energy (Eh)           Delta-E    RMSDP     MaxDP     DIISErr   Damp  Time(sec)
-------------------------------------------------------------------------------------------
               ***  Starting incremental Fock matrix formation  ***
    1    -707.6254265127540748     0.00e+00  3.46e-03  8.57e-02  2.59e-01  0.700  10.9
    2    -707.8126883301474663    -1.87e-01  2.36e-03  4.76e-02  1.13e-01  0.700   5.6
                               ***Turning on AO-DIIS***
    3    -707.8898590256544594    -7.72e-02  1.09e-03  1.36e-02  3.49e-02  0.700   5.5
    4    -707.9361780800124961    -4.63e-02  2.00e-03  3.01e-02  1.74e-02  0.000   5.3
    5    -708.0363523981068283    -1.00e-01  3.09e-04  6.14e-03  5.83e-03  0.000   5.4
    6    -708.0369379429566834    -5.86e-04  1.05e-04  2.18e-03  2.35e-03  0.000   5.0
    7    -708.0369714449400362    -3.35e-05  4.06e-05  8.40e-04  6.88e-04  0.000   4.5
               *** Restarting incremental Fock matrix formation ***
                             ****Resetting DIIS****
    8    -708.0369788465786769    -7.40e-06  3.32e-05  1.22e-03  7.47e-04  0.000  10.6
    9    -708.0369769136921150     1.93e-06  1.65e-05  8.45e-04  1.38e-03  0.000   6.7
                              *** Initializing SOSCF ***
---------------------------------------S-O-S-C-F--------------------------------------
Iteration    Energy (Eh)           Delta-E    RMSDP     MaxDP     MaxGrad    Time(sec)
--------------------------------------------------------------------------------------
   10    -708.0369802420177621    -3.33e-06  2.40e-06  7.14e-05  6.02e-05     3.4
               *** Restarting incremental Fock matrix formation ***
   11    -708.0369801838721742     5.81e-08  2.67e-06  1.02e-04  1.37e-05    10.6
   12    -708.0369801696349441     1.42e-08  1.61e-06  6.65e-05  2.58e-05     4.8
   13    -708.0369801996073420    -3.00e-08  4.88e-07  1.76e-05  3.29e-06     4.5
   14    -708.0369801967381136     2.87e-09  3.01e-07  1.19e-05  4.63e-06     3.7
                 **** Energy Check signals convergence ****

               *****************************************************
               *                     SUCCESS                       *
               *           SCF CONVERGED AFTER  14 CYCLES          *
               *****************************************************

Recomputing exchange energy using gridx3       ... done (   16.402 sec)
Old exchange energy                            :    -19.053891982 Eh
New exchange energy                            :    -19.053914203 Eh
Exchange energy change after final integration :     -0.000022221 Eh
Total energy after final integration           :   -708.037002420 Eh

SMD CDS free energy correction energy :                 4.90130     Kcal/mol
Total Energy after SMD CDS correction =              -708.029191710 Eh
             **** ENERGY FILE WAS UPDATED (/kaggle/working/Nal-1/Nal_InterFrag.en.tmp) ****

----------------
TOTAL SCF ENERGY
----------------

Total Energy       :       -708.02919170956363 Eh          -19266.45379 eV

Components:
Nuclear Repulsion  :       1047.80392880283421 Eh           28512.19443 eV
Electronic Energy  :      -1755.81097029209195 Eh          -47778.04549 eV
One Electron Energy:      -3042.27383460649799 Eh          -82784.47972 eV
Two Electron Energy:       1286.46286431440603 Eh           35006.43423 eV
CPCM Dielectric    :         -0.02993870948246 Eh              -0.81467 eV
SMD CDS (Gcds)     :          0.00781071055327 Eh               0.21254 eV

Virial components:
Potential Energy   :      -1411.87792781578901 Eh          -38419.15161 eV
Kinetic Energy     :        703.84873610622549 Eh           19152.69781 eV
Virial Ratio       :          2.00593942332903

DFT components:
N(Alpha)           :       57.000052087806 electrons
N(Beta)            :       57.000052087806 electrons
N(Total)           :      114.000104175611 electrons
E(X)               :      -75.661504967989 Eh       
E(C)               :       -4.568188828963 Eh       
E(XC)              :      -80.229693796952 Eh       

CPCM Solvation Model Properties:
Surface-charge          :         -0.04077220396450
Corrected charge        :         -0.00000000000000
Outlying charge corr.   :          0.00010478729754 Eh               0.00285 eV
Free-energy (cav+disp)  :          0.00781071055327 Eh               0.21254 eV

---------------
SCF CONVERGENCE
---------------

  Last Energy change         ...   -2.8692e-09  Tolerance :   1.0000e-08
  Last MAX-Density change    ...    1.1879e-05  Tolerance :   1.0000e-07
  Last RMS-Density change    ...    3.0091e-07  Tolerance :   5.0000e-09
  Last DIIS Error            ...    6.0150e-05  Tolerance :   5.0000e-07
  Last Orbital Gradient      ...    4.6254e-06  Tolerance :   1.0000e-05
  Last Orbital Rotation      ...    4.7445e-06  Tolerance :   1.0000e-05


----------------
ORBITAL ENERGIES
----------------

  NO   OCC          E(Eh)            E(eV) 
   0   2.0000     -19.186192      -522.0828 
   1   2.0000     -19.140129      -520.8294 
   2   2.0000     -14.302801      -389.1990 
   3   2.0000     -10.314920      -280.6832 
   4   2.0000     -10.216891      -278.0157 
   5   2.0000     -10.183743      -277.1137 
   6   2.0000     -10.183632      -277.1107 
   7   2.0000     -10.182811      -277.0884 
   8   2.0000     -10.177981      -276.9569 
   9   2.0000     -10.177904      -276.9548 
  10   2.0000     -10.177181      -276.9352 
  11   2.0000     -10.176881      -276.9270 
  12   2.0000     -10.176526      -276.9173 
  13   2.0000     -10.176280      -276.9106 
  14   2.0000     -10.175773      -276.8969 
  15   2.0000     -10.174015      -276.8490 
  16   2.0000      -1.093626       -29.7591 
  17   2.0000      -1.010819       -27.5058 
  18   2.0000      -0.885297       -24.0902 
  19   2.0000      -0.871604       -23.7176 
  20   2.0000      -0.816574       -22.2201 
  21   2.0000      -0.784263       -21.3409 
  22   2.0000      -0.738129       -20.0855 
  23   2.0000      -0.736809       -20.0496 
  24   2.0000      -0.701475       -19.0881 
  25   2.0000      -0.662445       -18.0260 
  26   2.0000      -0.618125       -16.8200 
  27   2.0000      -0.603297       -16.4166 
  28   2.0000      -0.586882       -15.9699 
  29   2.0000      -0.562723       -15.3125 
  30   2.0000      -0.511108       -13.9080 
  31   2.0000      -0.504399       -13.7254 
  32   2.0000      -0.496802       -13.5187 
  33   2.0000      -0.484025       -13.1710 
  34   2.0000      -0.480374       -13.0716 
  35   2.0000      -0.469273       -12.7696 
  36   2.0000      -0.448052       -12.1921 
  37   2.0000      -0.438827       -11.9411 
  38   2.0000      -0.427329       -11.6282 
  39   2.0000      -0.417607       -11.3637 
  40   2.0000      -0.409134       -11.1331 
  41   2.0000      -0.398864       -10.8537 
  42   2.0000      -0.391000       -10.6396 
  43   2.0000      -0.387865       -10.5543 
  44   2.0000      -0.380827       -10.3628 
  45   2.0000      -0.361257        -9.8303 
  46   2.0000      -0.359079        -9.7710 
  47   2.0000      -0.350028        -9.5248 
  48   2.0000      -0.324671        -8.8347 
  49   2.0000      -0.321397        -8.7457 
  50   2.0000      -0.316609        -8.6154 
  51   2.0000      -0.315299        -8.5797 
  52   2.0000      -0.282700        -7.6927 
  53   2.0000      -0.274316        -7.4645 
  54   2.0000      -0.243158        -6.6167 
  55   2.0000      -0.237365        -6.4590 
  56   2.0000      -0.203077        -5.5260 
  57   0.0000      -0.038446        -1.0462 
  58   0.0000      -0.000872        -0.0237 
  59   0.0000       0.005638         0.1534 
  60   0.0000       0.037601         1.0232 
  61   0.0000       0.098544         2.6815 
  62   0.0000       0.100750         2.7416 
  63   0.0000       0.108719         2.9584 
  64   0.0000       0.115365         3.1392 
  65   0.0000       0.125910         3.4262 
  66   0.0000       0.140105         3.8125 
  67   0.0000       0.153301         4.1715 
  68   0.0000       0.163839         4.4583 
  69   0.0000       0.168872         4.5953 
  70   0.0000       0.185083         5.0364 
  71   0.0000       0.189245         5.1496 
  72   0.0000       0.196594         5.3496 
  73   0.0000       0.201165         5.4740 
  74   0.0000       0.208834         5.6827 
  75   0.0000       0.213747         5.8164 
  76   0.0000       0.240746         6.5510 
  77   0.0000       0.262982         7.1561 
  78   0.0000       0.266648         7.2559 
  79   0.0000       0.275337         7.4923 
  80   0.0000       0.277456         7.5500 
  81   0.0000       0.299465         8.1489 
  82   0.0000       0.322985         8.7889 
  83   0.0000       0.330310         8.9882 
  84   0.0000       0.333728         9.0812 
  85   0.0000       0.346639         9.4325 
  86   0.0000       0.370260        10.0753 
  87   0.0000       0.375296        10.2123 
  88   0.0000       0.402874        10.9628 
  89   0.0000       0.475923        12.9505 
  90   0.0000       0.502605        13.6766 
  91   0.0000       0.509347        13.8600 
  92   0.0000       0.513071        13.9614 
  93   0.0000       0.525211        14.2917 
  94   0.0000       0.531119        14.4525 
  95   0.0000       0.539046        14.6682 
  96   0.0000       0.547366        14.8946 
  97   0.0000       0.559846        15.2342 
  98   0.0000       0.570507        15.5243 
  99   0.0000       0.579449        15.7676 
 100   0.0000       0.585297        15.9267 
 101   0.0000       0.597356        16.2549 
 102   0.0000       0.603872        16.4322 
 103   0.0000       0.609237        16.5782 
 104   0.0000       0.617757        16.8100 
 105   0.0000       0.626445        17.0464 
 106   0.0000       0.627969        17.0879 
 107   0.0000       0.633993        17.2518 
 108   0.0000       0.638073        17.3629 
 109   0.0000       0.642797        17.4914 
 110   0.0000       0.649909        17.6849 
 111   0.0000       0.664383        18.0788 
 112   0.0000       0.667887        18.1741 
 113   0.0000       0.672322        18.2948 
 114   0.0000       0.689485        18.7618 
 115   0.0000       0.710614        19.3368 
 116   0.0000       0.719350        19.5745 
 117   0.0000       0.725193        19.7335 
 118   0.0000       0.745573        20.2881 
 119   0.0000       0.755622        20.5615 
 120   0.0000       0.785466        21.3736 
 121   0.0000       0.799591        21.7580 
 122   0.0000       0.809271        22.0214 
 123   0.0000       0.818790        22.2804 
 124   0.0000       0.827956        22.5298 
 125   0.0000       0.834530        22.7087 
 126   0.0000       0.837938        22.8014 
 127   0.0000       0.845242        23.0002 
 128   0.0000       0.846886        23.0449 
 129   0.0000       0.858624        23.3644 
 130   0.0000       0.873643        23.7730 
 131   0.0000       0.880452        23.9583 
 132   0.0000       0.892569        24.2880 
 133   0.0000       0.897097        24.4113 
 134   0.0000       0.901266        24.5247 
 135   0.0000       0.918616        24.9968 
 136   0.0000       0.936985        25.4966 
 137   0.0000       0.941943        25.6316 
 138   0.0000       0.952844        25.9282 
 139   0.0000       0.960246        26.1296 
 140   0.0000       0.976468        26.5710 
 141   0.0000       0.981188        26.6995 
 142   0.0000       0.987980        26.8843 
 143   0.0000       1.013974        27.5916 
 144   0.0000       1.018644        27.7187 
 145   0.0000       1.043399        28.3923 
 146   0.0000       1.055376        28.7182 
 147   0.0000       1.068114        29.0648 
 148   0.0000       1.071270        29.1507 
 149   0.0000       1.092721        29.7344 
 150   0.0000       1.103428        30.0258 
 151   0.0000       1.139987        31.0206 
 152   0.0000       1.156310        31.4648 
 153   0.0000       1.189486        32.3676 
 154   0.0000       1.204761        32.7832 
 155   0.0000       1.223096        33.2821 
 156   0.0000       1.232839        33.5472 
 157   0.0000       1.245997        33.9053 
 158   0.0000       1.263689        34.3867 
 159   0.0000       1.286840        35.0167 
 160   0.0000       1.305558        35.5260 
 161   0.0000       1.336181        36.3593 
 162   0.0000       1.349331        36.7172 
 163   0.0000       1.366159        37.1751 
 164   0.0000       1.380258        37.5587 
 165   0.0000       1.401641        38.1406 
 166   0.0000       1.414399        38.4877 
 167   0.0000       1.423660        38.7398 
 168   0.0000       1.435082        39.0506 
 169   0.0000       1.435650        39.0660 
 170   0.0000       1.442280        39.2464 
 171   0.0000       1.461806        39.7778 
 172   0.0000       1.470070        40.0026 
 173   0.0000       1.494703        40.6729 
 174   0.0000       1.500050        40.8184 
 175   0.0000       1.529101        41.6090 
 176   0.0000       1.572177        42.7811 
 177   0.0000       1.600849        43.5613 
 178   0.0000       1.609725        43.8028 
 179   0.0000       1.698019        46.2054 
 180   0.0000       1.708939        46.5026 
 181   0.0000       1.722434        46.8698 
 182   0.0000       1.734034        47.1855 
 183   0.0000       1.763087        47.9760 
 184   0.0000       1.770782        48.1854 
 185   0.0000       1.784636        48.5624 
 186   0.0000       1.804772        49.1103 
 187   0.0000       1.823062        49.6080 
 188   0.0000       1.842412        50.1346 
 189   0.0000       1.853686        50.4414 
 190   0.0000       1.868816        50.8531 
 191   0.0000       1.875379        51.0316 
 192   0.0000       1.885728        51.3133 
 193   0.0000       1.899048        51.6757 
 194   0.0000       1.910059        51.9753 
 195   0.0000       1.923553        52.3425 
 196   0.0000       1.927361        52.4462 
 197   0.0000       1.941895        52.8416 
 198   0.0000       1.958884        53.3039 
 199   0.0000       1.962677        53.4072 
 200   0.0000       1.979050        53.8527 
 201   0.0000       1.983616        53.9769 
 202   0.0000       1.989547        54.1383 
 203   0.0000       2.003175        54.5092 
 204   0.0000       2.004654        54.5494 
 205   0.0000       2.012570        54.7648 
 206   0.0000       2.029012        55.2122 
 207   0.0000       2.048968        55.7552 
 208   0.0000       2.078516        56.5593 
 209   0.0000       2.088450        56.8296 
 210   0.0000       2.109845        57.4118 
 211   0.0000       2.112570        57.4859 
 212   0.0000       2.145502        58.3821 
 213   0.0000       2.172558        59.1183 
 214   0.0000       2.207843        60.0785 
 215   0.0000       2.235630        60.8346 
 216   0.0000       2.247225        61.1501 
 217   0.0000       2.264726        61.6263 
 218   0.0000       2.270643        61.7873 
 219   0.0000       2.277712        61.9797 
 220   0.0000       2.286212        62.2110 
 221   0.0000       2.295728        62.4699 
 222   0.0000       2.309876        62.8549 
 223   0.0000       2.317151        63.0529 
 224   0.0000       2.333126        63.4876 
 225   0.0000       2.344478        63.7965 
 226   0.0000       2.360855        64.2421 
 227   0.0000       2.365062        64.3566 
 228   0.0000       2.399986        65.3070 
 229   0.0000       2.402327        65.3706 
 230   0.0000       2.413477        65.6741 
 231   0.0000       2.420270        65.8589 
 232   0.0000       2.434477        66.2455 
 233   0.0000       2.453361        66.7593 
 234   0.0000       2.473237        67.3002 
 235   0.0000       2.477641        67.4200 
 236   0.0000       2.497757        67.9674 
 237   0.0000       2.516109        68.4668 
 238   0.0000       2.521290        68.6078 
 239   0.0000       2.528729        68.8102 
 240   0.0000       2.542769        69.1923 
 241   0.0000       2.546856        69.3035 
 242   0.0000       2.565548        69.8121 
 243   0.0000       2.578168        70.1555 
 244   0.0000       2.595680        70.6320 
 245   0.0000       2.610129        71.0252 
 246   0.0000       2.617143        71.2161 
 247   0.0000       2.632282        71.6280 
 248   0.0000       2.639645        71.8284 
 249   0.0000       2.657533        72.3151 
 250   0.0000       2.664706        72.5103 
 251   0.0000       2.685465        73.0752 
 252   0.0000       2.699035        73.4445 
 253   0.0000       2.718861        73.9840 
 254   0.0000       2.725936        74.1765 
 255   0.0000       2.743202        74.6463 
 256   0.0000       2.748465        74.7895 
 257   0.0000       2.773665        75.4753 
 258   0.0000       2.788210        75.8710 
 259   0.0000       2.802512        76.2602 
 260   0.0000       2.835550        77.1592 
 261   0.0000       2.838684        77.2445 
 262   0.0000       2.868285        78.0500 
 263   0.0000       2.898415        78.8699 
 264   0.0000       2.918570        79.4183 
 265   0.0000       2.942805        80.0778 
 266   0.0000       2.986754        81.2737 
 267   0.0000       3.033812        82.5542 
 268   0.0000       3.048269        82.9476 
 269   0.0000       3.057755        83.2057 
 270   0.0000       3.125779        85.0568 
 271   0.0000       3.186585        86.7114 
 272   0.0000       3.189414        86.7884 
 273   0.0000       3.209322        87.3301 
 274   0.0000       3.254138        88.5496 
 275   0.0000       3.263984        88.8175 
 276   0.0000       3.282344        89.3171 
 277   0.0000       3.312173        90.1288 
 278   0.0000       3.328557        90.5746 
 279   0.0000       3.369868        91.6988 
 280   0.0000       3.392260        92.3081 
 281   0.0000       3.421736        93.1102 
 282   0.0000       3.441649        93.6520 
 283   0.0000       3.458082        94.0992 
 284   0.0000       3.508982        95.4842 
 285   0.0000       3.523506        95.8795 
 286   0.0000       3.564340        96.9906 
 287   0.0000       3.824977       104.0829 
 288   0.0000       3.908571       106.3576 

                    ********************************
                    * MULLIKEN POPULATION ANALYSIS *
                    ********************************

-----------------------
MULLIKEN ATOMIC CHARGES
-----------------------
   0 O :   -0.502790
   1 O :   -0.511213
   2 N :   -0.621116
   3 C :   -0.258757
   4 C :    0.041097
   5 C :    0.088723
   6 C :    0.003599
   7 C :    0.108916
   8 C :   -0.142478
   9 C :   -0.173173
  10 C :   -0.166877
  11 C :   -0.117291
  12 C :   -0.171781
  13 C :    0.557574
  14 C :   -0.118847
  15 C :   -0.110177
  16 H :    0.127480
  17 H :    0.130392
  18 H :    0.143595
  19 H :    0.113445
  20 H :    0.120566
  21 H :    0.111443
  22 H :    0.111208
  23 H :    0.114650
  24 H :    0.112410
  25 H :    0.262324
  26 H :    0.266686
  27 H :    0.111636
  28 H :    0.368756
Sum of atomic charges:    0.0000000

--------------------------------
MULLIKEN REDUCED ORBITAL CHARGES
--------------------------------
  0 O s       :     3.826266  s :     3.826266
      pz      :     1.566495  p :     4.655233
      px      :     1.649975
      py      :     1.438763
      dz2     :     0.005096  d :     0.021291
      dxz     :     0.004430
      dyz     :     0.002979
      dx2y2   :     0.001608
      dxy     :     0.007177

  1 O s       :     3.845581  s :     3.845581
      pz      :     1.564437  p :     4.639884
      px      :     1.399745
      py      :     1.675702
      dz2     :     0.004166  d :     0.025748
      dxz     :     0.007374
      dyz     :     0.001657
      dx2y2   :     0.006559
      dxy     :     0.005992

  2 N s       :     3.587939  s :     3.587939
      pz      :     1.191909  p :     4.004893
      px      :     1.348958
      py      :     1.464026
      dz2     :     0.002400  d :     0.028283
      dxz     :     0.012221
      dyz     :     0.003444
      dx2y2   :     0.005861
      dxy     :     0.004358

  3 C s       :     3.236557  s :     3.236557
      pz      :     0.956900  p :     2.984690
      px      :     0.976441
      py      :     1.051349
      dz2     :     0.004527  d :     0.037510
      dxz     :     0.010445
      dyz     :     0.008926
      dx2y2   :     0.004936
      dxy     :     0.008676

  4 C s       :     3.159648  s :     3.159648
      pz      :     0.950834  p :     2.757490
      px      :     0.909689
      py      :     0.896966
      dz2     :     0.003481  d :     0.041765
      dxz     :     0.005855
      dyz     :     0.006912
      dx2y2   :     0.012950
      dxy     :     0.012568

  5 C s       :     3.142786  s :     3.142786
      pz      :     0.974305  p :     2.726209
      px      :     0.907635
      py      :     0.844269
      dz2     :     0.003861  d :     0.042282
      dxz     :     0.005885
      dyz     :     0.007043
      dx2y2   :     0.012332
      dxy     :     0.013161

  6 C s       :     3.194066  s :     3.194066
      pz      :     1.015466  p :     2.745500
      px      :     0.911602
      py      :     0.818432
      dz2     :     0.009669  d :     0.056835
      dxz     :     0.011237
      dyz     :     0.008191
      dx2y2   :     0.010970
      dxy     :     0.016768

  7 C s       :     3.140965  s :     3.140965
      pz      :     0.965818  p :     2.707441
      px      :     0.886414
      py      :     0.855208
      dz2     :     0.003876  d :     0.042678
      dxz     :     0.005913
      dyz     :     0.007142
      dx2y2   :     0.012360
      dxy     :     0.013388

  8 C s       :     3.195350  s :     3.195350
      pz      :     0.998441  p :     2.911863
      px      :     0.966165
      py      :     0.947257
      dz2     :     0.002917  d :     0.035265
      dxz     :     0.003553
      dyz     :     0.006272
      dx2y2   :     0.010993
      dxy     :     0.011530

  9 C s       :     3.198398  s :     3.198398
      pz      :     0.995271  p :     2.940100
      px      :     0.962898
      py      :     0.981930
[...]
28 H  s               0.3      13.9       0.1       0.0       1.1       0.0
28 H  pz              0.1       6.7       0.1       0.0       0.6       0.0
28 H  px              0.2       4.6       0.0       0.0       0.2       0.0
28 H  py              0.7      23.5       0.1       0.0       1.5       0.0

                    288   
                   3.89899
                   0.00000
                  --------
 3 C  dxy             0.1
 4 C  s               0.1
 4 C  dyz             0.2
 4 C  dxy             1.4
 5 C  dxz             0.7
 5 C  dx2y2           3.5
 5 C  dxy             0.5
 7 C  dz2             0.1
 7 C  dxz             0.7
 7 C  dx2y2           4.5
 8 C  px              0.2
 8 C  dxz             0.3
 8 C  dyz             0.2
 8 C  dx2y2           0.9
 8 C  dxy             1.2
 9 C  s               0.1
 9 C  px              0.4
 9 C  py              0.3
 9 C  dxz             0.3
 9 C  dyz             1.3
 9 C  dx2y2           0.3
 9 C  dxy             6.8
10 C  px              0.1
10 C  py              0.4
10 C  dxz             0.3
10 C  dyz             0.5
10 C  dx2y2           0.8
10 C  dxy             2.5
11 C  py              0.2
11 C  dz2             0.2
11 C  dxz             0.1
11 C  dyz             0.2
11 C  dx2y2           2.2
11 C  dxy             0.8
12 C  s               0.1
12 C  px              0.4
12 C  py              0.3
12 C  dz2             0.2
12 C  dyz             1.3
12 C  dxy             7.3
14 C  s               0.2
14 C  py              0.8
14 C  dz2             0.8
14 C  dxz             0.4
14 C  dyz             0.4
14 C  dx2y2           8.1
14 C  dxy             1.4
15 C  s               0.2
15 C  pz              0.1
15 C  px              0.6
15 C  dxz             1.9
15 C  dyz             0.7
15 C  dx2y2           4.7
15 C  dxy             4.0
19 H  s               0.4
19 H  pz              0.2
19 H  px              0.9
20 H  s               1.5
20 H  pz              0.3
20 H  px              1.5
20 H  py              2.4
21 H  s               0.7
21 H  px              0.6
21 H  py              1.2
22 H  s               0.6
22 H  py              1.5
23 H  s               1.6
23 H  pz              0.4
23 H  px              2.4
23 H  py              1.3
24 H  s               2.0
24 H  px              0.1
24 H  py              4.9
27 H  s               2.0
27 H  pz              0.8
27 H  px              3.9
27 H  py              0.5


                      *****************************
                      * MAYER POPULATION ANALYSIS *
                      *****************************

  NA   - Mulliken gross atomic population
  ZA   - Total nuclear charge
  QA   - Mulliken gross atomic charge
  VA   - Mayer's total valence
  BVA  - Mayer's bonded valence
  FA   - Mayer's free valence

  ATOM       NA         ZA         QA         VA         BVA        FA
  0 O      8.4895     8.0000    -0.4895     2.0320     2.0320    -0.0000
  1 O      8.5159     8.0000    -0.5159     2.0165     2.0165    -0.0000
  2 N      7.6137     7.0000    -0.6137     2.8644     2.8644     0.0000
  3 C      6.2455     6.0000    -0.2455     3.8647     3.8647    -0.0000
  4 C      5.9492     6.0000     0.0508     3.9091     3.9091    -0.0000
  5 C      5.9430     6.0000     0.0570     4.0066     4.0066    -0.0000
  6 C      6.0055     6.0000    -0.0055     3.8454     3.8454    -0.0000
  7 C      5.9154     6.0000     0.0846     3.9934     3.9934    -0.0000
  8 C      6.1566     6.0000    -0.1566     3.9136     3.9136    -0.0000
  9 C      6.1566     6.0000    -0.1566     3.8852     3.8852    -0.0000
 10 C      6.1534     6.0000    -0.1534     3.8925     3.8925     0.0000
 11 C      6.1136     6.0000    -0.1136     3.8997     3.8997     0.0000
 12 C      6.1568     6.0000    -0.1568     3.9017     3.9017     0.0000
 13 C      5.4492     6.0000     0.5508     3.9280     3.9280     0.0000
 14 C      6.1214     6.0000    -0.1214     3.9235     3.9235    -0.0000
 15 C      6.1131     6.0000    -0.1131     3.9104     3.9104     0.0000
 16 H      0.8747     1.0000     0.1253     0.9560     0.9560     0.0000
 17 H      0.8672     1.0000     0.1328     0.9543     0.9543    -0.0000
 18 H      0.8637     1.0000     0.1363     0.9529     0.9529     0.0000
 19 H      0.8888     1.0000     0.1112     0.9611     0.9611    -0.0000
 20 H      0.8793     1.0000     0.1207     0.9570     0.9570    -0.0000
 21 H      0.8860     1.0000     0.1140     0.9558     0.9558     0.0000
 22 H      0.8861     1.0000     0.1139     0.9553     0.9553     0.0000
 23 H      0.8848     1.0000     0.1152     0.9552     0.9552     0.0000
 24 H      0.8862     1.0000     0.1138     0.9551     0.9551     0.0000
 25 H      0.7372     1.0000     0.2628     0.9214     0.9214    -0.0000
 26 H      0.7290     1.0000     0.2710     0.9051     0.9051     0.0000
 27 H      0.8861     1.0000     0.1139     0.9549     0.9549     0.0000
 28 H      0.6325     1.0000     0.3675     0.8789     0.8789    -0.0000

  Mayer bond orders larger than 0.100000
B(  0-O , 13-C ) :   1.1139 B(  0-O , 28-H ) :   0.8258 B(  1-O , 13-C ) :   1.8551 
B(  2-N ,  6-C ) :   1.0313 B(  2-N , 25-H ) :   0.8928 B(  2-N , 26-H ) :   0.8995 
B(  3-C ,  4-C ) :   0.9942 B(  3-C ,  6-C ) :   0.9638 B(  3-C , 16-H ) :   0.9352 
B(  3-C , 17-H ) :   0.9277 B(  4-C ,  5-C ) :   1.2607 B(  4-C ,  8-C ) :   1.5158 
B(  5-C ,  7-C ) :   1.3000 B(  5-C ,  9-C ) :   1.2837 B(  6-C , 13-C ) :   0.9102 
B(  6-C , 18-H ) :   0.9250 B(  7-C , 10-C ) :   1.2770 B(  7-C , 12-C ) :   1.2815 
B(  8-C , 11-C ) :   1.2961 B(  8-C , 19-H ) :   0.9335 B(  9-C , 14-C ) :   1.5297 
B(  9-C , 20-H ) :   0.9272 B( 10-C , 11-C ) :   1.5304 B( 10-C , 21-H ) :   0.9355 
B( 11-C , 22-H ) :   0.9396 B( 12-C , 15-C ) :   1.5299 B( 12-C , 23-H ) :   0.9349 
B( 14-C , 15-C ) :   1.3159 B( 14-C , 24-H ) :   0.9403 B( 15-C , 27-H ) :   0.9406 


-------
TIMINGS
-------

Total SCF time: 0 days 0 hours 0 min 51 sec 

Total time                  ....      51.955 sec
Sum of individual times     ....      47.794 sec  ( 92.0%)

SCF preparation             ....       0.655 sec  (  1.3%)
Fock matrix formation       ....      46.569 sec  ( 89.6%)
  Startup                   ....       0.005 sec  (  0.0% of F)
  Split-RI-J                ....       3.186 sec  (  6.8% of F)
  Chain of spheres X        ....      39.768 sec  ( 85.4% of F)
  XC integration            ....       4.190 sec  (  9.0% of F)
    XC Preparation          ....       0.000 sec  (  0.0% of XC)
    Basis function eval.    ....       1.559 sec  ( 37.2% of XC)
    Density eval.           ....       1.047 sec  ( 25.0% of XC)
    XC-Functional eval.     ....       0.203 sec  (  4.8% of XC)
    XC-Potential eval.      ....       1.172 sec  ( 28.0% of XC)
  CPCM terms                ....       3.454 sec  (  7.4% of F)
Diagonalization             ....       0.000 sec  (  0.0%)
Density matrix formation    ....       0.016 sec  (  0.0%)
Total Energy calculation    ....       0.011 sec  (  0.0%)
Population analysis         ....       0.405 sec  (  0.8%)
Orbital Transformation      ....       0.022 sec  (  0.0%)
Orbital Orthonormalization  ....       0.000 sec  (  0.0%)
DIIS solution               ....       0.030 sec  (  0.1%)
  MO trafo                  ....       0.000 sec  (  0.0 % of DIIS)
  Orb grad                  ....       0.000 sec  (  0.0 % of DIIS)
  Energy W gradient         ....       0.000 sec  (  0.0 % of DIIS)
  DIIS error                ....       0.008 sec  ( 26.6 % of DIIS)
  DIIS work                 ....       0.021 sec  ( 69.7 % of DIIS)
  Form Q                    ....       0.000 sec  (  0.0 % of DIIS)
  Form QpQm                 ....       0.000 sec  (  0.0 % of DIIS)
  Exp/Cayley                ....       0.000 sec  (  0.0 % of DIIS)
  Orb update                ....       0.000 sec  (  0.0 % of DIIS)
  Wake-sleep                ....       0.001 sec  (  3.4 % of DIIS)
SOSCF solution              ....       0.086 sec  (  0.2%)
  MO trafo                  ....       0.037 sec  ( 43.4 % of SOSCF)
  Orb grad                  ....       0.002 sec  (  2.4 % of SOSCF)
  Rot update                ....       0.005 sec  (  6.0 % of SOSCF)
  Step                      ....       0.037 sec  ( 42.9 % of SOSCF)
Finished LeanSCF after  52.1 sec

Maximum memory used throughout the entire LEANSCF-calculation: 53.0 MB


-------------------------------------------------------------------------------
                          DFT DISPERSION CORRECTION                            
                                                                               
                              DFTD3 V3.1  Rev 1                                
                          USING Becke-Johnson damping                          
-------------------------------------------------------------------------------
The B3LYP functional is recognized
Active option DFTDOPT                   ...         4   

molecular C6(AA) [au] = 9427.854650 


            DFT-D V3
 parameters
 s6 scaling factor         :     1.0000 
 a1 scaling factor         :     0.3981 
 s8 scaling factor         :     1.9889 
 a2 scaling factor         :     4.4211 
 ad hoc parameters k1-k3   :    16.0000     1.3333    -4.0000 

 Edisp/kcal,au: -39.539086642348  -0.063009538595 
 E6   /kcal   : -18.596657846 
 E8   /kcal   : -20.942428796 
 % E8         :  52.966394964 

-------------------------   ----------------
Dispersion correction           -0.063009539
-------------------------   ----------------


-------------------------   --------------------
FINAL SINGLE POINT ENERGY      -708.102720874043
-------------------------   --------------------

                                *** OPTIMIZATION RUN DONE ***



           ************************************************************
           *        Program running with 2 parallel MPI-processes     *
           *              working on a common directory               *
           ************************************************************

------------------------------------------------------------------------------
                              ORCA PROPERTY CALCULATIONS
------------------------------------------------------------------------------

GBWName                                 ... /kaggle/working/Nal-1/Nal_InterFrag.gbw
Number of atoms                         ...     29
Number of basis functions               ...    289
Max core memory                         ...   3000 MB

Electric properties:
Dipole moment                           ... YES
Quadrupole moment                       ...  NO
Static polarizability (Dipole/Dipole)   ...  NO
Static polarizability (Dipole/Quad.)    ...  NO
Static polarizability (Quad./Quad.)     ...  NO
Static polarizability (Velocity)        ...  NO
Static hyperpolarizability              ...  NO

Atomic electric properties:
Dipole moment                           ...  NO
Quadrupole moment                       ...  NO
Static polarizability                   ...  NO

Choice of electric origin               ... Center of mass
Position of electric origin             ...    -0.208784    -0.015624     0.095299

General magnetic properties:
Magnetizability                         ...  NO

EPR properties:
g-Tensor (aka g-matrix)                 ...  NO
Zero-Field splitting spin-orbit         ...  NO
Zero-field splitting spin-spin          ...  NO
Hyperfine couplings                     ...  NO (   0 nuclei)
Quadrupole couplings                    ...  NO (   0 nuclei)
Contact density                         ...  NO (   0 nuclei)

NMR properties:
Chemical shifts                         ...  NO (   0 nuclei)
Spin-rotation constants                 ...  NO (   0 nuclei)
Spin-spin couplings                     ...  NO (   0 nuclei,    0 pairs)

Choice of magnetic origin               ... GIAO
Position of magnetic origin             ...     0.000000     0.000000     0.000000

Properties with geometric perturbations:
SCF Hessian                             ...  NO
IR spectrum                             ...  NO
VCD spectrum                            ...  NO
X-ray spectroscopy properties:
SCF XES/XAS/RIXS spectra                ...  NO

SCF SOC stabilization energy            ...  NO
Diagonal Born-Oppenheimer correction    ...  NO

-------------
DIPOLE MOMENT
-------------

Method             : SCF
Type of density    : Electron Density
Multiplicity       :   1
Irrep              :   0
Energy             :  -708.0397113354476915 Eh
Basis              : AO
                                X                 Y                 Z
Electronic contribution:      0.140771664       3.067340370       2.301446431
Nuclear contribution   :      0.233899231      -3.011699102      -1.608293379
                        -----------------------------------------
Total Dipole Moment    :      0.374670895       0.055641268       0.693153052
                        -----------------------------------------
Magnitude (a.u.)       :      0.789895805
Magnitude (Debye)      :      2.007755578



--------------------
Rotational spectrum 
--------------------
 
Rotational constants in cm-1:             0.030122             0.013137             0.010852 
Rotational constants in MHz :           903.042486           393.849786           325.320496 

Dipole components along the rotational axes: 
x,y,z [a.u.] :    -0.393719    -0.010546     0.684697 
x,y,z [Debye]:    -1.000753    -0.026805     1.740361 

 

Dipole moment calculation done in   0.0 sec 

Maximum memory used throughout the entire PROP-calculation: 18.6 MB

--------------------------------
SUGGESTED CITATIONS FOR THIS RUN
--------------------------------

Below you find a list of papers that are relevant to this ORCA run
We neither can nor want to force you to cite these papers, but we appreciate if you do
You receive ORCA, which is the product of decades of hard work by many enthusiastic individuals, for free
The only thing we kindly ask in return is that you cite our papers,
We deeply appreciate it, if you show your appreciation for ORCA by not just citing the generic ORCA reference.

Please note that relegating all ORCA citations to the supporting information does *not* help us.
SI sections are not indexed - citations you put there will not count into any citation statistics
But we need these citations in order to attract the funding resources that allow us to do what we are doing

Therefore, if you are a happy ORCA user, please consider citing a few of the papers listed below in the main body of your paper

In addition to the list printed below, the program has created the file /kaggle/working/Nal-1/Nal_InterFrag.bibtex that contains the list in bibtex format
You can import this file easily into all common literature databanks and citation aid programs

It goes without saying that in many instances, there are alternative algorithms to achieve similar
results as the ones you have gotten from ORCA. It is, of course, also the case that in some instances
ORCA just re-implements algorithms worked out by others. We are fully aware of that and we are also
fully appreciative of our colleagues work. Hence this citation list should not be read as indicating
that the listed papers, which are focused on our own work, are the only ones worth citing. It simply
meant to make it easier for users to cite ORCA specific papers. It is not a substitute for doing your
own literature research and citing the relevant literature in a scientifically appropriate manner.

List of essential papers. We consider these as the minimum necessary citations

  1. Neese, F.
     Software update: the ORCA program system, version 6.0
     WIRES Comput. Molec. Sci. 2025 15(1), e70019
     doi.org/10.1002/wcms.70019

List of papers to cite with high priority. The work reported in these papers was absolutely
necessary for this run to complete.
Our perspective: the developers of density functionals and basis sets usually get cited in chemistry papers
Good! But without the algorithms to do something with them, the functionals or basis sets would not do anything.
Hence, in our opinion, the algorithm design and method developments papers are equally worthy of getting cited

  1. Neese, F.
     An improvement of the resolution of the identity approximation for the formation of the Coulomb matrix
     J. Comp. Chem. 2003 24(14), 1740-1747
     doi.org/10.1002/jcc.10318
  2. Neese, F.; Wennmohs, F.; Hansen, A.; Becker, U.
     Efficient, approximate and parallel Hartree-Fock and hybrid DFT calculations. A 'chain-of-spheres' algorithm for the Hartree-Fock exchange
     Chem. Phys. 2009 356(1-3), 98-109
     doi.org/10.1016/j.chemphys.2008.10.036
  3. Grimme, S.; Antony, J.; Ehrlich, S.; Krieg, H.
     A consistent and accurate ab initio parametrization of density functional dispersion correction (DFT-D) for the 94 elements H-Pu
     J. Chem. Phys. 2010 132 , 154104
     doi.org/10.1063/1.3382344
  4. Grimme, S.; Ehrlich, S.; Goerigk, L.
     Effect of the damping function in dispersion corrected density functional theory
     J. Comput. Chem. 2011 32(7), 1456-1465
     doi.org/10.1002/jcc.21759
  5. Garcia-Rates, M.; Neese, F.
     Effect of the Solute Cavity on the Solvation Energy and its Derivatives within the Framework of the Gaussian Charge Scheme
     J. Comput. Chem. 2020 41 , 922-939
     doi.org/10.1002/jcc.26139
  6. Helmich-Paris, B.; de Souza, B.; Neese, F.; Izsák, R.
     An improved chain of spheres for exchange algorithm
     J. Chem. Phys. 2021 155(10), 104109
     doi.org/10.1063/5.0058766
  7. Neese, F.
     The SHARK Integral Generation and Digestion System
     J. Comp. Chem. 2022 44(3), 381
     doi.org/10.1002/jcc.26942

List of suggested additional citations. These are papers that are important in the 'surrounding' of 
of this run, or papers that preceded the highly important papers. If you like your results we are grateful for a citation.

  1. Izsak, R.; Neese, F.
     An overlap fitted chain of spheres exchange method
     J. Chem. Phys. 2011 135 , 144105
     doi.org/10.1063/1.3646921
  2. Izsak, R.; Hansen, A.; Neese, F.
     The resolution of identity and chain of spheres approximations for the LPNO-CCSD singles Fock term
     Molec. Phys. 2012 110 , 2413-2417
     doi.org/10.1080/00268976.2012.687466
  3. Neese, F.
     The ORCA program system
     WIRES Comput. Molec. Sci. 2012 2(1), 73-78
     doi.org/10.1002/wcms.81
  4. Izsak, R.; Neese, F.; Klopper, W.
     Robust fitting techniques in the chain of spheres approximation to the Fock exchange: The role of the complementary space
     J. Chem. Phys. 2013 139 , 
     doi.org/10.1063/1.4819264
  5. Neese, F.
     Software update: the ORCA program system, version 4.0
     WIRES Comput. Molec. Sci. 2018 8(1), 1-6
     doi.org/10.1002/wcms.1327
  6. Neese, F.; Wennmohs, F.; Becker, U.; Riplinger, C.
     The ORCA quantum chemistry program package
     J. Chem. Phys. 2020 152(22), 224108
     doi.org/10.1063/5.0004608
  7. Neese, F.
     Software update: The ORCA program system—Version 5.0
     WIRES Comput. Molec. Sci. 2022 12(1), e1606
     doi.org/10.1002/wcms.1606

List of optional additional citations

  1. Neese, F.
     Approximate second-order SCF convergence for spin unrestricted wavefunctions
     Chem. Phys. Lett. 2000 325(1-3), 93-98
     doi.org/10.1016/s0009-2614(00)00662-x

Timings for individual modules:

Sum of individual times          ...     1708.596 sec (=  28.477 min)
Startup calculation              ...       49.789 sec (=   0.830 min)   2.9 %
SCF iterations                   ...     1079.924 sec (=  17.999 min)  63.2 %
Property calculations            ...        0.434 sec (=   0.007 min)   0.0 %
SCF Gradient evaluation          ...      578.320 sec (=   9.639 min)  33.8 %
Geometry relaxation              ...        0.130 sec (=   0.002 min)   0.0 %
                             ****ORCA TERMINATED NORMALLY****
TOTAL RUN TIME: 0 days 0 hours 28 minutes 34 seconds 483 msec
