[Molden Format]
[Title]
 Molden file created by orca_2mkl for BaseName=/kaggle/working/Cha-2/Cha_InterFrag

[Atoms] AU
O    1   8          7.9796898539         7.5858709276        -0.0278016509 
O    2   8          4.0866329201         5.7380853755        -0.0102385362 
N    3   7         10.5467996589         3.4686168853         0.0236159075 
C    4   6          5.9943341290        -1.8409617510         0.0125950247 
C    5   6          3.3315191440        -2.5997321472        -0.0358197589 
C    6   6          7.6520661444        -4.1183179582         0.1717590980 
C    7   6          2.6091448731        -5.0799428959        -0.0229885184 
C    8   6          6.7510844080        -6.5724958397         0.1735033153 
C    9   6          6.2880372545         0.7971375059         0.0221268033 
C   10   6          4.1869414730        -7.2614786497         0.0600857322 
C   11   6          7.8535336270         3.0967735842         0.0375734247 
C   12   6          6.4870556520         5.3667957642         0.0046808516 
H   13   1         10.6031607409        -2.1448316031         0.0729169726 
H   14   1         -1.1966993099         2.9330760578         0.2516604984 
H   15   1          1.9607930646        -1.0774821573         0.0380723124 
H   16   1          9.7222460063        -4.1211298707         0.3146091657 
H   17   1         12.0284923465        -1.1653487534         0.0177369695 
H   18   1          0.3509372609        -4.5567193034        -0.1058983628 
H   19   1          0.5142020399        -6.1337448951        -0.0650783886 
H   20   1          6.9420695797       -13.6927779321        -0.1244460248 
H   21   1          8.0964900468        -8.1153287266         0.2953396283 
H   22   1          4.4052407463         1.5955203413         0.0205432128 
H   23   1          0.0273972495         3.5670376018         0.0193810312 
H   24   1          3.4849063245        -9.1569249847         0.0826452827 
H   25   1          7.5801734033       -13.1042208380        -1.2309298091 
H   26   1         10.7049716260        -0.3506103383        -0.0255453179 
H   27   1         11.1543806260         5.2592533396        -0.0207794286 
H   28   1         11.9481052865         2.2158664085         0.0925058737 
H   29   1          6.7208771357         8.9048563054        -0.0418290880 
[GTO]
  1 0
s   6 1.0 
     5484.6717000000         0.8317352088
      825.2349500000         1.5308074829
      188.0469600000         2.4771490916
       52.9645000000         3.2562802462
       16.8975700000         2.7928936336
        5.7996353000         0.9549376963
s   3 1.0 
       15.5396160000        -0.6179336976
        3.5999336000        -0.2757210088
        1.0137618000         0.8142076427
p   3 1.0 
       15.5396160000         3.1169455889
        3.5999336000         2.4014372483
        1.0137618000         1.0543605133
s   1 1.0 
        0.2700058000         0.2669561389
p   1 1.0 
        0.2700058000         0.2774319373
d   1 1.0 
        0.8000000000         1.9292013661

  2 0
s   6 1.0 
     5484.6717000000         0.8317352088
      825.2349500000         1.5308074829
      188.0469600000         2.4771490916
       52.9645000000         3.2562802462
       16.8975700000         2.7928936336
        5.7996353000         0.9549376963
s   3 1.0 
       15.5396160000        -0.6179336976
        3.5999336000        -0.2757210088
        1.0137618000         0.8142076427
p   3 1.0 
       15.5396160000         3.1169455889
        3.5999336000         2.4014372483
        1.0137618000         1.0543605133
s   1 1.0 
        0.2700058000         0.2669561389
p   1 1.0 
        0.2700058000         0.2774319373
d   1 1.0 
        0.8000000000         1.9292013661

  3 0
s   6 1.0 
     4173.5110000000         0.6790079572
      627.4579000000         1.2504643275
      142.9021000000         2.0203691378
       40.2343300000         2.6442129843
       12.8202100000         2.2650039968
        4.3904370000         0.7791872309
s   3 1.0 
       11.6263580000        -0.5158738103
        2.7162800000        -0.2550239186
        0.7722180000         0.6727344163
p   3 1.0 
       11.6263580000         2.0680595460
        2.7162800000         1.6100106206
        0.7722180000         0.7644899877
s   1 1.0 
        0.2120313000         0.2226947990
p   1 1.0 
        0.2120313000         0.2050879094
d   1 1.0 
        0.8000000000         1.9292013661

  4 0
s   6 1.0 
     3047.5249000000         0.5363343823
      457.3695100000         0.9894506076
      103.9486900000         1.5972822308
       29.2101550000         2.0791870615
        9.2866630000         1.7741742532
        3.1639270000         0.6125798260
s   3 1.0 
        7.8682724000        -0.3995563516
        1.8812885000        -0.1841552393
        0.5442493000         0.5163903794
p   3 1.0 
        7.8682724000         1.2960827175
        1.8812885000         0.9937536282
        0.5442493000         0.4959527138
s   1 1.0 
        0.1687144000         0.1876178721
p   1 1.0 
        0.1687144000         0.1541275509
d   1 1.0 
        0.8000000000         1.9292013661

  5 0
s   6 1.0 
     3047.5249000000         0.5363343823
      457.3695100000         0.9894506076
      103.9486900000         1.5972822308
       29.2101550000         2.0791870615
        9.2866630000         1.7741742532
        3.1639270000         0.6125798260
s   3 1.0 
        7.8682724000        -0.3995563516
        1.8812885000        -0.1841552393
        0.5442493000         0.5163903794
p   3 1.0 
        7.8682724000         1.2960827175
        1.8812885000         0.9937536282
        0.5442493000         0.4959527138
s   1 1.0 
        0.1687144000         0.1876178721
p   1 1.0 
        0.1687144000         0.1541275509
d   1 1.0 
        0.8000000000         1.9292013661

  6 0
s   6 1.0 
     3047.5249000000         0.5363343823
      457.3695100000         0.9894506076
      103.9486900000         1.5972822308
       29.2101550000         2.0791870615
        9.2866630000         1.7741742532
        3.1639270000         0.6125798260
s   3 1.0 
        7.8682724000        -0.3995563516
        1.8812885000        -0.1841552393
        0.5442493000         0.5163903794
p   3 1.0 
        7.8682724000         1.2960827175
        1.8812885000         0.9937536282
        0.5442493000         0.4959527138
s   1 1.0 
        0.1687144000         0.1876178721
p   1 1.0 
        0.1687144000         0.1541275509
d   1 1.0 
        0.8000000000         1.9292013661

  7 0
s   6 1.0 
     3047.5249000000         0.5363343823
      457.3695100000         0.9894506076
      103.9486900000         1.5972822308
       29.2101550000         2.0791870615
        9.2866630000         1.7741742532
        3.1639270000         0.6125798260
s   3 1.0 
        7.8682724000        -0.3995563516
        1.8812885000        -0.1841552393
        0.5442493000         0.5163903794
p   3 1.0 
        7.8682724000         1.2960827175
        1.8812885000         0.9937536282
        0.5442493000         0.4959527138
s   1 1.0 
        0.1687144000         0.1876178721
p   1 1.0 
        0.1687144000         0.1541275509
d   1 1.0 
        0.8000000000         1.9292013661

  8 0
s   6 1.0 
     3047.5249000000         0.5363343823
      457.3695100000         0.9894506076
      103.9486900000         1.5972822308
       29.2101550000         2.0791870615
        9.2866630000         1.7741742532
        3.1639270000         0.6125798260
s   3 1.0 
        7.8682724000        -0.3995563516
        1.8812885000        -0.1841552393
        0.5442493000         0.5163903794
p   3 1.0 
        7.8682724000         1.2960827175
        1.8812885000         0.9937536282
        0.5442493000         0.4959527138
s   1 1.0 
        0.1687144000         0.1876178721
p   1 1.0 
        0.1687144000         0.1541275509
d   1 1.0 
        0.8000000000         1.9292013661

  9 0
s   6 1.0 
     3047.5249000000         0.5363343823
      457.3695100000         0.9894506076
      103.9486900000         1.5972822308
       29.2101550000         2.0791870615
        9.2866630000         1.7741742532
        3.1639270000         0.6125798260
s   3 1.0 
        7.8682724000        -0.3995563516
        1.8812885000        -0.1841552393
        0.5442493000         0.5163903794
p   3 1.0 
        7.8682724000         1.2960827175
        1.8812885000         0.9937536282
        0.5442493000         0.4959527138
s   1 1.0 
        0.1687144000         0.1876178721
p   1 1.0 
        0.1687144000         0.1541275509
d   1 1.0 
        0.8000000000         1.9292013661

 10 0
s   6 1.0 
     3047.5249000000         0.5363343823
      457.3695100000         0.9894506076
      103.9486900000         1.5972822308
       29.2101550000         2.0791870615
        9.2866630000         1.7741742532
        3.1639270000         0.6125798260
s   3 1.0 
        7.8682724000        -0.3995563516
        1.8812885000        -0.1841552393
        0.5442493000         0.5163903794
p   3 1.0 
        7.8682724000         1.2960827175
        1.8812885000         0.9937536282
        0.5442493000         0.4959527138
s   1 1.0 
        0.1687144000         0.1876178721
p   1 1.0 
        0.1687144000         0.1541275509
d   1 1.0 
        0.8000000000         1.9292013661

 11 0
s   6 1.0 
     3047.5249000000         0.5363343823
      457.3695100000         0.9894506076
      103.9486900000         1.5972822308
       29.2101550000         2.0791870615
        9.2866630000         1.7741742532
        3.1639270000         0.6125798260
s   3 1.0 
        7.8682724000        -0.3995563516
        1.8812885000        -0.1841552393
        0.5442493000         0.5163903794
p   3 1.0 
        7.8682724000         1.2960827175
        1.8812885000         0.9937536282
        0.5442493000         0.4959527138
s   1 1.0 
        0.1687144000         0.1876178721
p   1 1.0 
        0.1687144000         0.1541275509
d   1 1.0 
        0.8000000000         1.9292013661

 12 0
s   6 1.0 
     3047.5249000000         0.5363343823
      457.3695100000         0.9894506076
      103.9486900000         1.5972822308
       29.2101550000         2.0791870615
        9.2866630000         1.7741742532
        3.1639270000         0.6125798260
s   3 1.0 
        7.8682724000        -0.3995563516
        1.8812885000        -0.1841552393
        0.5442493000         0.5163903794
p   3 1.0 
        7.8682724000         1.2960827175
        1.8812885000         0.9937536282
        0.5442493000         0.4959527138
s   1 1.0 
        0.1687144000         0.1876178721
p   1 1.0 
        0.1687144000         0.1541275509
d   1 1.0 
        0.8000000000         1.9292013661

 13 0
s   3 1.0 
       18.7311370000         0.2149354183
        2.8253937000         0.3645711272
        0.6401217000         0.4150514277
s   1 1.0 
        0.1612778000         0.1813806839
p   1 1.0 
        1.1000000000         1.6057611426

 14 0
s   3 1.0 
       18.7311370000         0.2149354183
        2.8253937000         0.3645711272
        0.6401217000         0.4150514277
s   1 1.0 
        0.1612778000         0.1813806839
p   1 1.0 
        1.1000000000         1.6057611426

 15 0
s   3 1.0 
       18.7311370000         0.2149354183
        2.8253937000         0.3645711272
        0.6401217000         0.4150514277
s   1 1.0 
        0.1612778000         0.1813806839
p   1 1.0 
        1.1000000000         1.6057611426

 16 0
s   3 1.0 
       18.7311370000         0.2149354183
        2.8253937000         0.3645711272
        0.6401217000         0.4150514277
s   1 1.0 
        0.1612778000         0.1813806839
p   1 1.0 
        1.1000000000         1.6057611426

 17 0
s   3 1.0 
       18.7311370000         0.2149354183
        2.8253937000         0.3645711272
        0.6401217000         0.4150514277
s   1 1.0 
        0.1612778000         0.1813806839
p   1 1.0 
        1.1000000000         1.6057611426

 18 0
s   3 1.0 
       18.7311370000         0.2149354183
        2.8253937000         0.3645711272
        0.6401217000         0.4150514277
s   1 1.0 
        0.1612778000         0.1813806839
p   1 1.0 
        1.1000000000         1.6057611426

 19 0
s   3 1.0 
       18.7311370000         0.2149354183
        2.8253937000         0.3645711272
        0.6401217000         0.4150514277
s   1 1.0 
        0.1612778000         0.1813806839
p   1 1.0 
        1.1000000000         1.6057611426

 20 0
s   3 1.0 
       18.7311370000         0.2149354183
        2.8253937000         0.3645711272
        0.6401217000         0.4150514277
s   1 1.0 
        0.1612778000         0.1813806839
p   1 1.0 
        1.1000000000         1.6057611426

 21 0
s   3 1.0 
       18.7311370000         0.2149354183
        2.8253937000         0.3645711272
        0.6401217000         0.4150514277
s   1 1.0 
        0.1612778000         0.1813806839
p   1 1.0 
        1.1000000000         1.6057611426

 22 0
s   3 1.0 
       18.7311370000         0.2149354183
        2.8253937000         0.3645711272
        0.6401217000         0.4150514277
s   1 1.0 
        0.1612778000         0.1813806839
p   1 1.0 
        1.1000000000         1.6057611426

 23 0
s   3 1.0 
       18.7311370000         0.2149354183
        2.8253937000         0.3645711272
        0.6401217000         0.4150514277
s   1 1.0 
        0.1612778000         0.1813806839
p   1 1.0 
        1.1000000000         1.6057611426

 24 0
s   3 1.0 
       18.7311370000         0.2149354183
        2.8253937000         0.3645711272
        0.6401217000         0.4150514277
s   1 1.0 
        0.1612778000         0.1813806839
p   1 1.0 
        1.1000000000         1.6057611426

 25 0
s   3 1.0 
       18.7311370000         0.2149354183
        2.8253937000         0.3645711272
        0.6401217000         0.4150514277
s   1 1.0 
        0.1612778000         0.1813806839
p   1 1.0 
        1.1000000000         1.6057611426

 26 0
s   3 1.0 
       18.7311370000         0.2149354183
        2.8253937000         0.3645711272
        0.6401217000         0.4150514277
s   1 1.0 
        0.1612778000         0.1813806839
p   1 1.0 
        1.1000000000         1.6057611426

 27 0
s   3 1.0 
       18.7311370000         0.2149354183
        2.8253937000         0.3645711272
        0.6401217000         0.4150514277
s   1 1.0 
        0.1612778000         0.1813806839
p   1 1.0 
        1.1000000000         1.6057611426

 28 0
s   3 1.0 
       18.7311370000         0.2149354183
        2.8253937000         0.3645711272
        0.6401217000         0.4150514277
s   1 1.0 
        0.1612778000         0.1813806839
p   1 1.0 
        1.1000000000         1.6057611426

 29 0
s   3 1.0 
       18.7311370000         0.2149354183
        2.8253937000         0.3645711272
        0.6401217000         0.4150514277
s   1 1.0 
        0.1612778000         0.1813806839
p   1 1.0 
        1.1000000000         1.6057611426

[5D]
[7F]
[9G]
[MO]
 Sym=     1a
 Ene= -1.91145771471856E+01
 Spin= Alpha
 Occup= 2.000000
  1      -0.995114732302
  2      -0.030344759297
  3       0.001932151547
  4       0.000073454081
  5       0.000007216526
  6       0.021564635936
  7      -0.003959585294
  8      -0.005870514199
  9       0.000084048400
 10      -0.000055558477
 11      -0.000019188093
 12      -0.000006344947
 13      -0.000179226689
 14       0.001381125468
 15       0.000482415353
 16       0.000634540296
 17       0.000112332164
 18      -0.000070477879
 19       0.000002813414
 20      -0.003130988152
 21      -0.000488475394
 22       0.001903255917
 23      -0.000038464320
 24       0.000067461820
 25      -0.000006371439
 26       0.000008238810
 27       0.000147369284
 28       0.000381280869
 29       0.000049148416
 30       0.000575298743
 31      -0.000139273503
 32       0.000099767294
 33      -0.000002862042
 34      -0.004405467375
 35       0.003438220181
 36      -0.000213414922
 37       0.000005035369
 38       0.000058946511
 39       0.000008054585
 40      -0.000002309762
 41      -0.000201000048
 42      -0.000117473623
 43       0.000053104722
 44       0.000321732202
 45       0.000021708373
 46       0.000071476946
 47       0.000002866681
 48      -0.005011822474
 49      -0.000565864551
 50      -0.006250722686
 51      -0.000009710260
 52       0.000101995262
 53      -0.000002670019
 54      -0.000012613282
 55       0.000150888247
 56      -0.000048718464
 57       0.000023448335
 58       0.000160913558
 59      -0.000010338334
 60      -0.000016059892
 61      -0.000006282791
 62      -0.001789256248
 63      -0.000245753482
 64       0.001683968488
 65       0.000015993332
 66       0.000059428884
 67       0.000000782558
 68      -0.000000321830
 69      -0.000008296577
 70       0.000061052117
 71       0.000017302518
 72       0.000109146286
 73      -0.000027582586
 74      -0.000077328627
 75       0.000001525706
 76      -0.002660714423
 77       0.002030270818
 78       0.000681565264
 79       0.000132643063
 80       0.000036065732
 81      -0.000014526858
 82       0.000002313042
 83      -0.000045676918
 84       0.000000973200
 85      -0.000003169820
 86       0.000002987146
 87       0.000044431420
 88       0.000016916985
 89      -0.000001060647
 90       0.001576438937
 91       0.000146157651
 92       0.000796943684
 93      -0.000013093943
 94       0.000000185498
 95       0.000001039771
 96      -0.000001826604
 97      -0.000014116329
 98       0.000004650667
 99      -0.000007437068
100      -0.000020339967
101       0.000009862485
102       0.000067854509
103      -0.000003726415
104       0.001842515704
105      -0.000244317842
106       0.000729370935
107      -0.000028008929
108      -0.000006173316
109      -0.000002492340
110      -0.000000348154
111      -0.000017689200
112      -0.000001401456
113      -0.000021659525
114       0.000074472540
115       0.000067655567
116       0.000413150544
117      -0.000000297924
118       0.009150976176
119      -0.000390180540
120      -0.004769540622
121       0.000027100502
122      -0.000009408295
123       0.000001224698
124       0.000008241902
125      -0.000187992440
126       0.000021190052
127       0.000005325184
128       0.000049236822
129      -0.000010617336
130       0.000027112028
131      -0.000003774954
132      -0.000339475950
133      -0.000324007728
134      -0.000434112399
135       0.000001384071
136       0.000006086468
137      -0.000000910011
138       0.000000070507
139      -0.000004880944
140      -0.000001211255
141      -0.000044914721
142       0.000109731406
143      -0.000156679324
144      -0.000058407764
145      -0.000000652632
146       0.004710491702
147       0.006461788469
148       0.004809294413
149      -0.000071064762
150      -0.000149653213
151      -0.000006611613
152      -0.000011802111
153      -0.000111474028
154       0.000053603005
155       0.000054118645
156      -0.000069527531
157      -0.000439115598
158      -0.000435267230
159       0.000008082301
160      -0.008859555725
161      -0.009608668476
162      -0.008889573789
163       0.000115104068
164       0.000393061540
165       0.000001089534
166       0.000017103620
167       0.000224574155
168      -0.000047381156
169       0.000031488792
170      -0.000548626353
171       0.000020304570
172       0.000013281557
173      -0.000002129320
174      -0.000008524492
175      -0.000147043045
176      -0.000011477365
177      -0.000004362696
178       0.000001115363
179      -0.000083106029
180      -0.000176025239
181       0.000012765208
182      -0.000029862910
183       0.000000933627
184      -0.000073696225
185      -0.000483759282
186       0.000008698169
187      -0.000008924327
188      -0.000004367794
189      -0.000036620271
190       0.000539041841
191      -0.000025036712
192       0.000016759314
193       0.000003595404
194      -0.000025622178
195      -0.000165176887
196      -0.000010096128
197      -0.000001765444
198      -0.000000876890
199      -0.000007589525
200       0.000078828128
201      -0.000004704815
202      -0.000010698625
203       0.000000270261
204      -0.000005143807
205       0.000005845061
206      -0.000000156219
207       0.000000839059
208      -0.000000463982
209      -0.000008851828
210       0.000082841765
211      -0.000002354531
212      -0.000017232677
213      -0.000000198883
214       0.000131738339
215      -0.001388711213
216      -0.000015502377
217       0.000030689088
218       0.000001049025
219      -0.000047405637
220       0.000269194793
221       0.000008908224
222      -0.000020482145
223       0.000005155576
224      -0.000034445097
225      -0.000183488866
226       0.000005325403
227      -0.000002937933
228       0.000000151751
229      -0.000005326405
230       0.000008793806
231      -0.000001016335
232       0.000000273884
233       0.000001121594
234       0.000032084653
235      -0.000037003092
236       0.000008005838
237       0.000036979340
238       0.000002448378
239       0.000288397969
240      -0.000785285601
241       0.000016742775
242       0.000012336663
243      -0.000003564519
244      -0.000108862736
245      -0.001111040933
246      -0.000021607318
247      -0.000096826327
248       0.000008778175
249       0.000578271822
250      -0.000536817413
251       0.001487179214
252      -0.001133228412
253       0.000011129910
 Sym=     1a
 Ene= -1.90403698341560E+01
 Spin= Alpha
 Occup= 2.000000
  1      -0.000436495915
  2       0.000590721045
  3       0.000010740433
  4      -0.000193120616
  5       0.000003622463
  6      -0.003417408034
  7      -0.001049447001
  8       0.002115881938
  9      -0.000044612239
 10      -0.000003893133
 11      -0.000000491575
 12       0.000008276367
 13       0.000398876552
 14       0.000205056751
 15      -0.995223597381
 16      -0.030729861121
 17      -0.001964205374
 18       0.000363727891
 19       0.000000403144
 20       0.026973134744
 21       0.008073862105
 22      -0.001469639375
 23       0.000043641577
 24      -0.000261850211
 25       0.000005153309
 26       0.000000824047
 27       0.000465890406
 28      -0.000171709484
 29      -0.000044644726
 30      -0.000355133613
 31      -0.000110493863
 32       0.000014836574
 33       0.000004681636
 34       0.006429823869
 35      -0.002855057143
 36       0.000541224656
 37       0.000017187552
 38       0.000084047887
 39      -0.000001930122
 40       0.000006435207
 41       0.000209721678
 42      -0.000179741117
 43       0.000020391315
 44       0.000120652829
 45      -0.000232462140
 46       0.000012868829
 47      -0.000013431612
 48      -0.005257679891
 49       0.005106632283
 50      -0.005441984452
 51       0.000237170416
 52       0.000049614880
 53       0.000008781701
 54      -0.000009454908
 55      -0.000007377491
 56      -0.000035409652
 57      -0.000018261517
 58      -0.000047672900
 59       0.000075802580
 60       0.000156656104
 61       0.000003886532
 62       0.004338699359
 63       0.001371588246
 64      -0.001301563931
 65      -0.000007614428
 66      -0.000015950642
 67      -0.000000728150
 68      -0.000005850882
 69      -0.000010999864
 70       0.000125664667
 71       0.000032893569
 72       0.000216240682
 73      -0.000011163352
 74       0.000011265704
 75      -0.000017410169
 76      -0.002882071435
 77       0.001808281725
 78      -0.003092861521
 79       0.000298304788
 80       0.000071968945
 81      -0.000009333959
 82       0.000014581074
 83       0.000032603561
 84       0.000056838617
 85       0.000036278813
 86       0.000240064052
 87       0.000028721562
 88      -0.000026490046
 89      -0.000001498252
 90      -0.002597362034
 91      -0.001394691601
 92      -0.001169221768
 93      -0.000001107227
 94       0.000069409285
 95      -0.000000640870
 96       0.000004137457
 97       0.000032077565
 98      -0.000036304404
 99       0.000006548300
100       0.000048384016
101       0.000037819655
102       0.000021539145
103       0.000003849249
104      -0.001246022197
105      -0.000912336633
106      -0.000396499426
107      -0.000084295618
108       0.000017456970
109      -0.000006219645
110      -0.000005946874
111      -0.000023386980
112      -0.000018980386
113       0.000017848277
114       0.000082652820
115       0.000139817171
116      -0.000010510969
117       0.000014100562
118      -0.006995407913
119      -0.008276979737
120      -0.011049398585
121      -0.000216247894
122      -0.000010911376
123      -0.000001369539
124       0.000000478489
125       0.000073524739
126      -0.000212637156
127      -0.000005811626
128      -0.000027694077
129      -0.000041222771
130       0.000012804003
131      -0.000002800307
132       0.000078816286
133       0.000084778793
134       0.000656038061
135      -0.000001433117
136      -0.000006242597
137       0.000003633823
138      -0.000000674425
139      -0.000029908300
140      -0.000004521345
141      -0.000081664982
142      -0.000683091444
143       0.000277321759
144       0.000295183845
145      -0.000004334172
146       0.001917197527
147      -0.011841191112
148      -0.014990876433
149       0.000072849574
150      -0.000019553111
151       0.000014305384
152       0.000015254903
153       0.000218034276
154      -0.000063064662
155      -0.000272365709
156      -0.001551467922
157       0.000396425984
158       0.000063645435
159      -0.000002136622
160      -0.003587711324
161       0.019119318750
162      -0.002156867803
163       0.000117304093
164      -0.000156866265
165       0.000005642008
166       0.000003412545
167       0.000496635952
168      -0.000183958976
169      -0.000059676193
170       0.001298319886
171      -0.000013440133
172       0.000001812321
173       0.000007579174
174      -0.000002813810
175      -0.000075264826
176       0.000007767003
177       0.000006393143
178      -0.000003282926
179       0.000055892929
180       0.000425894154
181       0.000009686483
182      -0.000036599220
183      -0.000002635004
184       0.000020547247
185      -0.001271401731
186       0.000001190000
187       0.000053990445
188       0.000002654584
189       0.000009514209
190      -0.000268598174
191       0.000013631371
192       0.000038676073
193      -0.000003028311
194      -0.000014672768
195       0.000143454907
196       0.000016129542
197       0.000020441196
198      -0.000000157319
199      -0.000056217696
200      -0.000508447471
201      -0.000021313080
202       0.000021954676
203      -0.000002799597
204       0.000005192844
205      -0.000003429574
206       0.000000322177
207      -0.000001028861
208      -0.000000021093
209       0.000065056329
210       0.000218878194
211       0.000008152040
212       0.000009649820
213       0.000002960469
214       0.000067723061
215      -0.001416885783
216      -0.000035267014
217       0.000307100236
218       0.000008581005
219       0.000001861172
220       0.000181940872
221       0.000053303844
222       0.000019495461
223       0.000001469590
224       0.000050783574
225       0.000263696791
226       0.000007559249
227      -0.000006762980
228      -0.000000882614
229       0.000005443337
230      -0.000014626966
231       0.000000738628
232      -0.000001453950
233      -0.000002099025
234       0.000031753927
235      -0.000761268795
236      -0.000005485792
237      -0.000026778861
238      -0.000007161589
239      -0.000103966994
240      -0.000024752739
241       0.000021608533
242      -0.000072128051
243       0.000001462898
244      -0.000129867538
245       0.000773694016
246       0.000077419699
247      -0.000046996184
248      -0.000006603367
249       0.000040274247
250      -0.000111553117
251      -0.000102375682
252      -0.000105378661
253       0.000003084060
 Sym=     1a
 Ene= -1.42999658926831E+01
 Spin= Alpha
 Occup= 2.000000
  1      -0.000015637264
  2      -0.000434426928
  3      -0.000013037745
  4       0.000140138060
  5       0.000001570981
  6       0.002308444985
  7      -0.000617848584
  8      -0.000782700742
  9      -0.000001937220
 10      -0.000031040643
 11       0.000000298269
 12       0.000002266692
 13       0.000029388549
 14      -0.000017856399
 15       0.000005559158
 16       0.000160214977
 17      -0.000038756763
 18      -0.000028069006
 19      -0.000001120289
 20      -0.001682032069
 21      -0.000089984914
 22       0.000627511876
 23      -0.000013635764
 24      -0.000104572151
 25      -0.000003226791
 26      -0.000002551192
 27       0.000104449433
 28       0.000105205128
 29       0.995177479029
 30       0.033583162036
 31       0.000622062181
 32      -0.000046930644
 33      -0.000041027390
 34      -0.027938505562
 35       0.009311574456
 36       0.000496538688
 37      -0.000011422275
 38      -0.000769254690
 39       0.000048810748
 40      -0.000085165145
 41      -0.000802031646
 42      -0.000552007337
 43      -0.000054600734
 44      -0.000362976740
 45       0.000050043060
 46      -0.000053648128
 47       0.000001664413
 48       0.009752234616
 49       0.000914333160
 50       0.010121569894
 51      -0.000041481184
 52      -0.000081756390
 53       0.000001694502
 54       0.000007583091
 55      -0.000092830234
 56       0.000094070870
 57      -0.000009489402
 58      -0.000101199331
 59      -0.000056051782
 60      -0.000067743662
 61       0.000011436987
 62      -0.000435027147
 63       0.001599156440
 64      -0.000181339005
 65      -0.000035682342
 66      -0.000037195140
 67       0.000004430381
 68       0.000000253364
 69       0.000069530234
 70      -0.000101577367
 71      -0.000028280397
 72      -0.000174523452
 73       0.000064562462
 74       0.000041890741
 75       0.000010483177
 76       0.003450432926
 77      -0.003266074272
 78      -0.000271295198
 79      -0.000267202943
 80      -0.000067298307
 81       0.000016191748
 82      -0.000004768209
 83       0.000063406935
 84      -0.000020407559