
                                 *****************
                                 * O   R   C   A *
                                 *****************

                                            #,                                       
                                            ###                                      
                                            ####                                     
                                            #####                                    
                                            ######                                   
                                           ########,                                 
                                     ,,################,,,,,                         
                               ,,#################################,,                 
                          ,,##########################################,,             
                       ,#########################################, ''#####,          
                    ,#############################################,,   '####,        
                  ,##################################################,,,,####,       
                ,###########''''           ''''###############################       
              ,#####''   ,,,,##########,,,,          '''####'''          '####       
            ,##' ,,,,###########################,,,                        '##       
           ' ,,###''''                  '''############,,,                           
         ,,##''                                '''############,,,,        ,,,,,,###''
      ,#''                                            '''#######################'''  
     '                                                          ''''####''''         
             ,#######,   #######,   ,#######,      ##                                
            ,#'     '#,  ##    ##  ,#'     '#,    #''#        ,####,    ,#,          
            ##       ##  ##   ,#'  ##            #'  '#       #'       ,# #          
            ##       ##  #######   ##           ,######,      #####,      #          
            '#,     ,#'  ##    ##  '#,     ,#' ,#      #,     #,   #      #          
             '#######'   ##     ##  '#######'  #'      '#     '####' #    #          



                #########################################################
                #                        -***-                          #
                #          Department of theory and spectroscopy        #
                #                                                       #
                #                      Frank Neese                      #
                #                                                       #
                #     Directorship, Architecture, Infrastructure        #
                #                    SHARK, DRIVERS                     #
                #        Core code/Algorithms in most modules           #
                #                                                       #
                #        Max Planck Institute fuer Kohlenforschung      #
                #                Kaiser Wilhelm Platz 1                 #
                #                 D-45470 Muelheim/Ruhr                 #
                #                      Germany                          #
                #                                                       #
                #                  All rights reserved                  #
                #                        -***-                          #
                #########################################################


                         Program Version 6.1.1  -  RELEASE   -
                                (GIT: $487d211c$)
                          ($2025-11-21 10:33:24 +0100$)
                                                                         
                                  - NO-DMRG VERSION -                    
                                                                         


 With contributions from (in alphabetic order):
[Max-Planck-Institut fuer Kohlenforschung]                               
  Daniel Aravena         : Magnetic Suceptibility                        
  Michael Atanasov       : Ab Initio Ligand Field Theory (pilot matlab implementation)
  Alexander A. Auer      : GIAO ZORA, VPT2 properties, NMR spectrum      
  Ute Becker             : All parallelization in ORCA, NUMFREQ, NUMCALC 
  Giovanni Bistoni       : ED, misc. LED, open-shell LED, HFLD           
  Dmytro Bykov           : pre 5.0 version of the SCF Hessian            
  Marcos Casanova-Páez   : Triplet and SCS-CIS(D). UHF-(DLPNO)-IP/EA/STEOM-CCSD. UHF-CVS-IP/STEOM-CCSD   
  Vijay G. Chilkuri      : MRCI spin determinant printing, contributions to CSF-ICE 
  Pauline Colinet        : FMM embedding                                 
  Dipayan Datta          : RHF DLPNO-CCSD density                        
  Achintya Kumar Dutta   : EOM-CC, STEOM-CC                              
  Nicolas Foglia         : Exact transition moments, OPA infrastructure, MCD improvements    
  Dmitry Ganyushin       : Spin-Orbit,Spin-Spin,Magnetic field MRCI      
  Miquel Garcia-Rates    : C-PCM and meta-GGA Hessian, CCSD/C-PCM, Gaussian charge scheme 
  Tiago L. C. Gouveia    : GS-ROHF, GS-ROCIS                             
  Yang Guo               : DLPNO-NEVPT2, F12-NEVPT2, CIM, IAO-localization        
  Andreas Hansen         : Spin unrestricted coupled pair/coupled cluster methods 
  Ingolf Harden          : AUTO-CI MPn and infrastructure                
  Benjamin Helmich-Paris : MC-RPA, TRAH-(SCF,CASSCF), AVAS, COSX integrals, SCF dyn. polar., MC-PDFT, srDFT 
  Lee Huntington         : MR-EOM, pCC                                   
  Robert Izsak           : Overlap fitted RIJCOSX, COSX-SCS-MP3, EOM     
  Riya Kayal             : Wick's Theorem for AUTO-CI, AUTO-CI UHF-CCSDT 
  Emily Kempfer          : AUTO-CI RHF CISDT and CCSDT, approximate NEVPT4
  Christian Kollmar      : KDIIS, OOCD, Brueckner-CCSD(T), CCSD density, CASPT2, CASPT2-K, improved NEVPT2 
  Axel Koslowski         : Symmetry handling                             
  Simone Kossmann        : meta-GGA functionals, TD-DFT gradient, OOMP2, (MP2 Hessian; deprecated post 5.0) 
  Lucas Lang             : DCDCAS, Hyperfine gauge corrections, ICE-SOC+SSC
  Marvin Lechner         : AUTO-CI (C++ implementation), FIC-MRCC        
  Spencer Leger          : CASSCF response                               
  Dagmar Lenk            : GEPOL surface, SMD, ORCA-2-JSON               
  Dimitrios Liakos       : Extrapolation schemes; Compound Job, Property file
  Dimitrios Manganas     : Further ROCIS development; embedding schemes. LFT, Crystal Embedding 
  Dimitrios Pantazis     : SARC Basis sets                               
  Anastasios Papadopoulos: AUTO-CI, single reference methods and gradients 
  Taras Petrenko         : pre 6.0 DFT Hessian and TD-DFT gradient,  ECA, NRVS 
  Petra Pikulova         : Analytic Raman intensities                    
  Peter Pinski           : DLPNO-MP2, DLPNO-MP2 Gradient                 
  Shashank Vittal Rao    : ES-AILFT, MagRelax                            
  Christoph Reimann      : Effective Core Potentials                     
  Marius Retegan         : Local ZFS, SOC                                
  Christoph Riplinger    : Optimizer, TS searches, QM/MM, DLPNO-CCSD(T), (RO)-DLPNO pert. Triples 
  Michael Roemelt        : Original ROCIS implementation, recursive CI coupling coefficients
  Masaaki Saitow         : Open-shell DLPNO-CCSD energy and density      
  Barbara Sandhoefer     : DKH picture change effects                    
  Yorick L. A. Schmerwitz: GMF and freeze-and-release deltaSCF, NEB S-IDPP initial path                    
  Kantharuban Sivalingam : CASSCF convergence/infrastructure, NEVPT2, NEVPT3, NEVPT4(SD), FIC-MRCI and CEPA variants
  Bernardo de Souza      : ESD, SOC TD-DFT                               
  Georgi L. Stoychev     : AutoAux, RI-MP2 NMR, DLPNO-MP2 response, X2C  
  Van Anh Tran           : RI-MP2 g-tensors                              
  Willem Van den Heuvel  : Paramagnetic NMR                              
  Zikuan Wang            : NOTCH, Electric field optimization            
  Frank Wennmohs         : Technical directorship and infrastructure     
  Hang Xu                : AUTO-CI-Response properties                   
                                                                         
[FACCTs GmbH]                                                            
  Markus Bursch, Nicolas Foglia, Miquel Garcia-Rates, Ingolf Harden, Hagen Neugebauer, Anastasios Papadopoulos, 
  Christoph Riplinger, Bernardo de Souza, Georgi L. Stoychev                                                    
                                                                 
  APM, various basis sets, CI-OPT, improved COSX, DLPNO-Multilevel,           
  DOCKER, DRACO, updates on ESD, Fragmentator, GOAT, IRC, LR-CPCM, L-BFGS, MBIS, meta-GGA TD-DFT gradient, ML-optimized integration grids, 
  MM, NACMEs, nearIR, NEB, NEB-TS, NL-DFT gradient (VV10), 2- and 3-layer-ONIOM, interface openCOSMO-RS, QMMM,   
  Crystal-QMMM, RESP, rigid body optimization, SF, symmetry and pop. for TD-DFT, various functionals, SOLVATOR                                   
                                                                         
[Other institutions]                                                     
  V. Asgeirsson          : NEB                                           
  Christoph Bannwarth    : sTDA-DFT, sTD-DFT, PBEh-3c, B97-3c, D3        
  Giovanni Bistoni       : ETS/NOCV, ADLD/ADEX, COVALED                  
  Martin Brehm           : Molecular dynamics                            
  Ronald Cardenas        : ETS/NOCV                                      
  Martina Colucci        : COVALED                                       
  Sebastian Ehlert       : rSCAN, r2SCAN, r2SCAN-3c, D4, dhf basis sets  
  Marvin Friede          : D4 for Fr, Ra, Ac-Lr                          
  Lars Goerigk           : TD-DFT with DH, B97 family of functionals     
  Stefan Grimme          : VdW corrections, initial TS optimization, DFT functionals, gCP, sTDA/sTD-DF 
  Waldemar Hujo          : DFT-NL                                        
  H. Jonsson             : NEB                                           
  Holger Kruse           : gCP                                           
  Marcel Mueller         : wB97X-3c, vDZP basis set                      
  Hagen Neugebauer       : wr2SCAN, Native XTB                           
  Gianluca Regni         : ADLD/ADEX                                     
  Tobias Risthaus        : pre 6.0 range-separated hybrid DFT and stability analysis
  Lukas Wittmann         : regularized MP2, r2SCAN double-hybrids, wr2SCAN        
                                                                         
We gratefully acknowledge several colleagues who have allowed us to      
interface, adapt or use parts of their codes:                            
  Ed Valeev, F. Pavosevic, A. Kumar             : LibInt (2-el integral package), F12 methods 
  Garnet Chan, S. Sharma, J. Yang, R. Olivares  : DMRG                   
  Ulf Ekstrom                                   : XCFun DFT Library      
  Mihaly Kallay                                 : mrcc  (arbitrary order and MRCC methods)
  Frank Weinhold                                : gennbo (NPA and NBO analysis)           
  Simon Mueller                                 : openCOSMO-RS                            
  Christopher J. Cramer and Donald G. Truhlar   : smd solvation model                     
  S Lehtola, MJT Oliveira, MAL Marques          : LibXC Library                           
  Liviu Ungur et al                             : ANISO software                          


 Your calculation uses the libint2 library for the computation of 2-el integrals
 For citations please refer to: http://libint.valeyev.net

 Your ORCA version has been built with support for libXC version: 7.0.0
 For citations please refer to: https://libxc.gitlab.io

 This ORCA versions uses:
   CBLAS   interface :  Fast vector & matrix operations
   LAPACKE interface :  Fast linear algebra routines
   SCALAPACK package :  Parallel linear algebra routines
   Shared memory     :  Shared parallel matrices
   BLAS/LAPACK       :  OpenBLAS 0.3.29  USE64BITINT DYNAMIC_ARCH NO_AFFINITY SkylakeX SINGLE_THREADED
        Core in use  :  SkylakeX
   Copyright (c) 2011-2014, The OpenBLAS Project


  ***********************************
  * Starting time: Sun Mar 22 19:29:54 2026
  * Host name:     67ef585b9411
  * Process ID:    54
  * Working dir.:  /kaggle/working
  ***********************************

NOTE: MaxCore=3000 MB was set to SCF,MP2,MDCI,CIPSI,MRCI,RASCI and CIS
      => If you want to overwrite this, your respective input block should be placed after the MaxCore statement
Your calculation utilizes the atom-pairwise dispersion correction
with the Becke-Johnson damping scheme (D3BJ)


Your calculation utilizes the SMD solvation module
Please cite in your paper:
Marenich, A. V.; Cramer, C. J.; Truhlar, D. G. J. Phys. Chem. B 2009, 113, 6378 

Warning: RI is on but no J-basis has been assigned. Assigning Def2/J (nothing to worry about!)
================================================================================

----- Orbital basis set information -----
Your calculation utilizes the basis: 6-31G(d,p)
   H-He, Li-Ne : W. J. Hehre, R. Ditchfield and J.A. Pople, J. Chem. Phys. 56, 2257 (1972).
                 Note: He and Ne are unpublished basis sets taken from the Gaussian program.
                 Note: Li and B from J. D. Dill and J. A. Pople, J. Chem. Phys. 62, 2921 (1975).
   Na - Ar     : M. M. Francl, W. J. Pietro, W. J. Hehre, J. S. Binkley, M. S. Gordon, 
                 D. J. DeFrees and J. A. Pople, J. Chem. Phys. 77, 3654 (1982).
   K - Zn      : V. A. Rassolov, J. A. Pople, M. A. Ratner, and T. L. Windus, J. Chem. Phys. 109, 1223 (1998).

----- AuxJ basis set information -----
Your calculation utilizes the auxiliary basis: def2/J
   H-Rn: F. Weigend, Phys. Chem. Chem. Phys. 8, 1057 (2006).
   Fr-Lr: K. Eichkorn, F. Weigend, O. Treutler, R. Ahlrichs; Theor. Chem. Acc. 97, 119 (1997).

================================================================================
                                        WARNINGS
                       Please study these warnings very carefully!
================================================================================


WARNING: Geometry Optimization
  ===> : Switching off AutoStart
         For restart on a previous wavefunction, please use MOREAD

================================================================================
                                       INPUT FILE
================================================================================
NAME = /kaggle/working/Phe-1/Phe_InterFrag.inp
|  1> 
|  2> !RKS B3LYP 6-31G(d,p) TightSCF Opt D3BJ
|  3>  
|  4> %pal nprocs 2 end
|  5> %maxcore 3000
|  6> 
|  7> %cpcm
|  8>   smd true
|  9>   SMDsolvent "WATER"
| 10>   end
| 11> 
| 12> %scf
| 13>   MaxIter 1000
| 14>   SOSCF Start 0.00033
| 15>   end
| 16> end
| 17> 
| 18> %output
| 19>   PrintLevel Normal
| 20>   Print[ P_OrbEn ] 2        # print ALL orbital energies (not just up to LUMO+9) :contentReference[oaicite:10]{index=10}
| 21>   XYZFile true              # writes basename.xyz (handy for reuse) :contentReference[oaicite:11]{index=11}
| 22>   end
| 23> 
| 24> *xyz 0 1
| 25> O       -1.560600000     -1.548000000     -1.037200000
| 26> O       -3.186300000     -1.023600000      0.455400000
| 27> N       -2.794500000      1.632600000     -0.111800000
| 28> C       -0.609000000      0.981200000      0.790500000
| 29> C       -1.665200000      0.724100000     -0.295700000
| 30> C        0.759300000      0.461200000      0.414100000
| 31> C        1.108200000     -0.835500000      0.753700000
| 32> C        1.637000000      1.291300000     -0.263300000
| 33> C       -2.225900000     -0.685900000     -0.224900000
| 34> C        2.370800000     -1.315700000      0.406200000
| 35> C        2.899600000      0.810900000     -0.610900000
| 36> C        3.266500000     -0.492500000     -0.276100000
| 37> H       -0.918000000      0.537800000      1.747100000
| 38> H       -0.516100000      2.058900000      0.985900000
| 39> H       -1.265400000      0.894300000     -1.302000000
| 40> H        0.419300000     -1.484000000      1.287200000
| 41> H        1.359500000      2.306800000     -0.530700000
| 42> H       -2.474400000      2.596800000     -0.197700000
| 43> H       -3.158700000      1.545000000      0.836800000
| 44> H        2.656700000     -2.330500000      0.667200000
| 45> H        3.597000000      1.451600000     -1.142800000
| 46> H        4.249600000     -0.866500000     -0.546800000
| 47> H       -1.936200000     -2.453100000     -0.995600000
| 48> *
| 49> 
| 50>                          ****END OF INPUT****
================================================================================

                       *****************************
                       * Geometry Optimization Run *
                       *****************************

Geometry optimization settings:
Update method            Update   .... BFGS
Choice of coordinates    CoordSys .... (2022) Redundant Internals
Initial Hessian          InHess   .... Almloef's Model
Max. no of cycles        MaxIter  .... 69

Convergence Tolerances:
Energy Change            TolE     ....  5.0000e-06 Eh
Max. Gradient            TolMAXG  ....  3.0000e-04 Eh/bohr
RMS Gradient             TolRMSG  ....  1.0000e-04 Eh/bohr
Max. Displacement        TolMAXD  ....  4.0000e-03 bohr
RMS Displacement         TolRMSD  ....  2.0000e-03 bohr
Strict Convergence                .... False

------------------------------------------------------------------------------
                        ORCA OPTIMIZATION COORDINATE SETUP
------------------------------------------------------------------------------

The optimization will be done in redundant internal coordinates (2022)
Making redundant internal coordinates   ...  (2022 redundants) done
Evaluating the initial hessian          ...  (Almloef) done
Evaluating the coordinates              ...  done
Calculating the B-matrix                .... done
Calculating the G-matrix                .... done
The number of degrees of freedom        ....  107

    -----------------------------------------------------------------
                    Redundant Internal Coordinates


    -----------------------------------------------------------------
         Definition                    Initial Value    Approx d2E/dq
    -----------------------------------------------------------------
      1. B(C   4,C   3)                  1.5367         0.364474   
      2. B(C   4,N   2)                  1.4610         0.431127   
      3. B(C   5,C   3)                  1.5114         0.399997   
      4. B(C   6,C   5)                  1.3851         0.636155   
      5. B(C   7,C   5)                  1.3850         0.636321   
      6. B(C   8,O   1)                  1.2244         1.028109   
      7. B(C   8,O   0)                  1.3586         0.628122   
      8. B(C   8,C   4)                  1.5190         0.388916   
      9. B(C   9,C   6)                  1.3948         0.613843   
     10. B(C  10,C   7)                  1.3949         0.613632   
     11. B(C  11,C  10)                  1.3948         0.613802   
     12. B(C  11,C   9)                  1.3948         0.613873   
     13. B(H  12,C   3)                  1.0987         0.348758   
     14. B(H  13,C   3)                  1.0992         0.348128   
     15. B(H  14,C   4)                  1.0961         0.352113   
     16. B(H  15,C   6)                  1.0862         0.365207   
     17. B(H  16,C   7)                  1.0862         0.365212   
     18. B(H  17,N   2)                  1.0196         0.417759   
     19. B(H  18,N   2)                  1.0199         0.417283   
     20. B(H  19,C   9)                  1.0861         0.365256   
     21. B(H  20,C  10)                  1.0862         0.365193   
     22. B(H  21,C  11)                  1.0861         0.365280   
     23. B(H  22,O   0)                  0.9808         0.481667   
     24. A(C   8,O   0,H  22)          111.8815         0.366106   
     25. A(H  17,N   2,H  18)          105.7657         0.299820   
     26. A(C   4,N   2,H  17)          109.5594         0.335412   
     27. A(C   4,N   2,H  18)          109.8581         0.335348   
     28. A(C   4,C   3,H  12)          110.7684         0.321320   
     29. A(C   4,C   3,C   5)          112.8702         0.366077   
     30. A(C   4,C   3,H  13)          110.3510         0.321225   
     31. A(C   5,C   3,H  13)          107.7629         0.326165   
     32. A(H  12,C   3,H  13)          105.3471         0.287855   
     33. A(C   5,C   3,H  12)          109.4262         0.326262   
     34. A(N   2,C   4,C   8)          106.6197         0.372635   
     35. A(C   3,C   4,H  14)          111.8544         0.321824   
     36. A(N   2,C   4,H  14)          107.5140         0.328855   
     37. A(C   3,C   4,C   8)          112.0890         0.364321   
     38. A(N   2,C   4,C   3)          109.7709         0.368498   
     39. A(C   8,C   4,H  14)          108.7568         0.325270   
     40. A(C   3,C   5,C   6)          119.2802         0.403305   
     41. A(C   6,C   5,C   7)          121.4247         0.438128   
     42. A(C   3,C   5,C   7)          119.2951         0.403323   
     43. A(C   5,C   6,H  15)          121.3063         0.355297   
     44. A(C   9,C   6,H  15)          119.4029         0.353154   
     45. A(C   5,C   6,C   9)          119.2906         0.435298   
     46. A(C   5,C   7,H  16)          121.2553         0.355314   
     47. A(C   5,C   7,C  10)          119.2793         0.435291   
     48. A(C  10,C   7,H  16)          119.4652         0.353134   
     49. A(O   0,C   8,O   1)          122.7724         0.470697   
     50. A(O   1,C   8,C   4)          124.8494         0.434292   
     51. A(O   0,C   8,C   4)          112.3579         0.397853   
     52. A(C   6,C   9,H  19)          120.0049         0.353162   
     53. A(C   6,C   9,C  11)          119.9988         0.432514   
     54. A(C  11,C   9,H  19)          119.9963         0.353165   
     55. A(C   7,C  10,C  11)          120.0066         0.432479   
     56. A(C  11,C  10,H  20)          119.9902         0.353148   
     57. A(C   7,C  10,H  20)          120.0033         0.353131   
     58. A(C   9,C  11,C  10)          120.0001         0.432509   
     59. A(C  10,C  11,H  21)          120.0030         0.353162   
     60. A(C   9,C  11,H  21)          119.9969         0.353169   
     61. D(C   8,C   4,C   3,C   5)     81.9384         0.010640   
     62. D(C   8,C   4,N   2,H  18)     67.0068         0.015847   
     63. D(C   8,C   4,C   3,H  12)    -41.1559         0.010640   
     64. D(C   8,C   4,C   3,H  13)   -157.4238         0.010640   
     65. D(N   2,C   4,C   3,H  12)     77.1311         0.010640   
     66. D(C   8,C   4,N   2,H  17)   -177.2149         0.015847   
     67. D(N   2,C   4,C   3,H  13)    -39.1369         0.010640   
     68. D(C   3,C   4,N   2,H  17)     61.1630         0.015847   
     69. D(N   2,C   4,C   3,C   5)   -159.7747         0.010640   
     70. D(H  14,C   4,N   2,H  17)    -60.7226         0.015847   
     71. D(C   3,C   4,N   2,H  18)    -54.6153         0.015847   
     72. D(C   6,C   5,C   3,H  13)    147.9152         0.011874   
     73. D(C   6,C   5,C   3,H  12)     33.8567         0.011874   
     74. D(C   6,C   5,C   3,C   4)    -89.9805         0.011874   
     75. D(C   7,C   5,C   3,C   4)     89.9968         0.011874   
     76. D(C   7,C   5,C   3,H  12)   -146.1660         0.011874   
     77. D(H  15,C   6,C   5,C   7)    179.8411         0.028095   
     78. D(H  15,C   6,C   5,C   3)     -0.1821         0.028095   
     79. D(C   9,C   6,C   5,C   7)      0.0103         0.028095   
     80. D(C   9,C   6,C   5,C   3)    179.9871         0.028095   
     81. D(H  16,C   7,C   5,C   6)    179.8264         0.028111   
     82. D(C  10,C   7,C   5,C   6)     -0.0031         0.028111   
     83. D(C  10,C   7,C   5,C   3)   -179.9799         0.028111   
     84. D(H  16,C   7,C   5,C   3)     -0.1504         0.028111   
     85. D(O   1,C   8,C   4,N   2)    -31.8241         0.011256   
     86. D(O   0,C   8,C   4,H  14)     30.9111         0.011256   
     87. D(O   0,C   8,C   4,C   3)    -93.2889         0.011256   
     88. D(O   0,C   8,C   4,N   2)    146.5716         0.011256   
     89. D(C   4,C   8,O   0,H  22)   -179.1957         0.029002   
     90. D(O   1,C   8,C   4,C   3)     88.3154         0.011256   
     91. D(O   1,C   8,O   0,H  22)     -0.7615         0.029002   
     92. D(H  19,C   9,C   6,H  15)      0.1344         0.026043   
     93. D(H  19,C   9,C   6,C   5)    179.9684         0.026043   
     94. D(C  11,C   9,C   6,H  15)   -179.8427         0.026043   
     95. D(C  11,C   9,C   6,C   5)     -0.0086         0.026043   
     96. D(H  20,C  10,C   7,H  16)      0.1291         0.026024   
     97. D(H  20,C  10,C   7,C   5)    179.9617         0.026024   
     98. D(C  11,C  10,C   7,H  16)   -179.8383         0.026024   
     99. D(C  11,C  10,C   7,C   5)     -0.0057         0.026024   
    100. D(H  21,C  11,C  10,C   7)    179.9985         0.026039   
    101. D(C   9,C  11,C  10,H  20)   -179.9602         0.026039   
    102. D(C   9,C  11,C  10,C   7)      0.0072         0.026039   
    103. D(H  21,C  11,C   9,H  19)      0.0316         0.026045   
    104. D(H  21,C  11,C   9,C   6)   -179.9913         0.026045   
    105. D(C  10,C  11,C   9,H  19)   -179.9771         0.026045   
    106. D(H  21,C  11,C  10,H  20)      0.0311         0.026039   
    107. D(C  10,C  11,C   9,C   6)     -0.0000         0.026045   
    -----------------------------------------------------------------

Number of atoms                         .... 23
Number of degrees of freedom            .... 107


         *************************************************************
         *                GEOMETRY OPTIMIZATION CYCLE   1            *
         *************************************************************
---------------------------------
CARTESIAN COORDINATES (ANGSTROEM)
---------------------------------
  O     -1.560600   -1.548000   -1.037200
  O     -3.186300   -1.023600    0.455400
  N     -2.794500    1.632600   -0.111800
  C     -0.609000    0.981200    0.790500
  C     -1.665200    0.724100   -0.295700
  C      0.759300    0.461200    0.414100
  C      1.108200   -0.835500    0.753700
  C      1.637000    1.291300   -0.263300
  C     -2.225900   -0.685900   -0.224900
  C      2.370800   -1.315700    0.406200
  C      2.899600    0.810900   -0.610900
  C      3.266500   -0.492500   -0.276100
  H     -0.918000    0.537800    1.747100
  H     -0.516100    2.058900    0.985900
  H     -1.265400    0.894300   -1.302000
  H      0.419300   -1.484000    1.287200
  H      1.359500    2.306800   -0.530700
  H     -2.474400    2.596800   -0.197700
  H     -3.158700    1.545000    0.836800
  H      2.656700   -2.330500    0.667200
  H      3.597000    1.451600   -1.142800
  H      4.249600   -0.866500   -0.546800
  H     -1.936200   -2.453100   -0.995600

----------------------------
CARTESIAN COORDINATES (A.U.)
----------------------------
  NO LB      ZA    FRAG     MASS         X           Y           Z
   0 O     8.0000    0    15.999   -2.949107   -2.925296   -1.960024
   1 O     8.0000    0    15.999   -6.021234   -1.934324    0.860581
   2 N     7.0000    0    14.007   -5.280840    3.085167   -0.211271
   3 C     6.0000    0    12.011   -1.150843    1.854199    1.493829
   4 C     6.0000    0    12.011   -3.146772    1.368351   -0.558792
   5 C     6.0000    0    12.011    1.434869    0.871542    0.782536
   6 C     6.0000    0    12.011    2.094195   -1.578866    1.424287
   7 C     6.0000    0    12.011    3.093482    2.440203   -0.497565
   8 C     6.0000    0    12.011   -4.206341   -1.296163   -0.424999
   9 C     6.0000    0    12.011    4.480163   -2.486313    0.767607
  10 C     6.0000    0    12.011    5.479450    1.532379   -1.154434
  11 C     6.0000    0    12.011    6.172790   -0.930690   -0.521753
  12 H     1.0000    0     1.008   -1.734769    1.016295    3.301541
  13 H     1.0000    0     1.008   -0.975288    3.890757    1.863081
  14 H     1.0000    0     1.008   -2.391259    1.689982   -2.460423
  15 H     1.0000    0     1.008    0.792362   -2.804354    2.432455
  16 H     1.0000    0     1.008    2.569083    4.359220   -1.002878
  17 H     1.0000    0     1.008   -4.675938    4.907241   -0.373599
  18 H     1.0000    0     1.008   -5.969078    2.919627    1.581323
  19 H     1.0000    0     1.008    5.020435   -4.404007    1.260825
  20 H     1.0000    0     1.008    6.797345    2.743126   -2.159579
  21 H     1.0000    0     1.008    8.030580   -1.637448   -1.033302
  22 H     1.0000    0     1.008   -3.658888   -4.635687   -1.881411

--------------------------------
INTERNAL COORDINATES (ANGSTROEM)
--------------------------------
 O      0   0   0     0.000000000000     0.00000000     0.00000000
 O      1   0   0     2.268424697891     0.00000000     0.00000000
 N      2   1   0     2.744197791705    89.16570152     0.00000000
 C      3   2   1     2.452524719549    78.11778029   298.10567026
 C      3   2   1     1.460996218339    62.25615225   332.83221483
 C      4   3   2     1.511397317055   143.75632748    91.36398718
 C      6   4   3     1.385095758422   119.28024601   250.88393411
 C      6   4   3     1.385024931184   119.29506452    70.86124502
 C      2   1   3     1.224425391765    30.23646188   342.87972198
 C      7   6   4     1.394814342484   119.29055833   179.98706386
 C      8   6   4     1.394908126007   119.27925348   180.02012302
 C     10   7   6     1.394801068253   119.99881530     0.00000000
 H      4   3   2     1.098712027785   100.18867165   306.60457235
 H      4   3   2     1.099203739077    83.12561263   202.17524905
 H      5   3   2     1.096105729389   107.51402506   129.09355806
 H      7   6   4     1.086166520383   121.30631136   359.81788253
 H      8   6   4     1.086162630548   121.25528452   359.84959966
 H      3   2   1     1.019570723393   167.85147802   283.06943356
 H      3   2   1     1.019881051888    70.95155874   206.84113616
 H     10   7   6     1.086130217792   120.00488242   179.96843333
 H     11   8   6     1.086177177076   120.00326256   179.96170782
 H     12  10   7     1.086112379084   119.99690486   180.00868519
 H      1   2   3     0.980822068471    84.89255779   196.41078566

---------------------------
INTERNAL COORDINATES (A.U.)
---------------------------
 O      0   0   0     0.000000000000     0.00000000     0.00000000
 O      1   0   0     4.286701434436     0.00000000     0.00000000
 N      2   1   0     5.185782283634    89.16570152     0.00000000
 C      3   2   1     4.634600056620    78.11778029   298.10567026
 C      3   2   1     2.760882735355    62.25615225   332.83221483
 C      4   3   2     2.856127008777   143.75632748    91.36398718
 C      6   4   3     2.617451652674   119.28024601   250.88393411
 C      6   4   3     2.617317808590   119.29506452    70.86124502
 C      2   1   3     2.313828661856    30.23646188   342.87972198
 C      7   6   4     2.635817114961   119.29055833   179.98706386
 C      8   6   4     2.635994340134   119.27925348   180.02012302
 C     10   7   6     2.635792030299   119.99881530     0.00000000
 H      4   3   2     2.076264832559   100.18867165   306.60457235
 H      4   3   2     2.077194032237    83.12561263   202.17524905
 H      5   3   2     2.071339642368   107.51402506   129.09355806
 H      7   6   4     2.052557259357   121.30631136   359.81788253
 H      8   6   4     2.052549908636   121.25528452   359.84959966
 H      3   2   1     1.926709441377   167.85147802   283.06943356
 H      3   2   1     1.927295877244    70.95155874   206.84113616
 H     10   7   6     2.052488657402   120.00488242   179.96843333
 H     11   8   6     2.052577397589   120.00326256   179.96170782
 H     12  10   7     2.052454947131   119.99690486   180.00868519
 H      1   2   3     1.853485095517    84.89255779   196.41078566

---------------------
BASIS SET INFORMATION
---------------------
There are 4 groups of distinct atoms

 Group   1 Type O   : 10s4p1d contracted to 3s2p1d pattern {631/31/1}
 Group   2 Type N   : 10s4p1d contracted to 3s2p1d pattern {631/31/1}
 Group   3 Type C   : 10s4p1d contracted to 3s2p1d pattern {631/31/1}
 Group   4 Type H   : 4s1p contracted to 2s1p pattern {31/1}

Atom   0O    basis set group =>   1
Atom   1O    basis set group =>   1
Atom   2N    basis set group =>   2
Atom   3C    basis set group =>   3
Atom   4C    basis set group =>   3
Atom   5C    basis set group =>   3
Atom   6C    basis set group =>   3
Atom   7C    basis set group =>   3
Atom   8C    basis set group =>   3
Atom   9C    basis set group =>   3
Atom  10C    basis set group =>   3
Atom  11C    basis set group =>   3
Atom  12H    basis set group =>   4
Atom  13H    basis set group =>   4
Atom  14H    basis set group =>   4
Atom  15H    basis set group =>   4
Atom  16H    basis set group =>   4
Atom  17H    basis set group =>   4
Atom  18H    basis set group =>   4
Atom  19H    basis set group =>   4
Atom  20H    basis set group =>   4
Atom  21H    basis set group =>   4
Atom  22H    basis set group =>   4
---------------------------------
AUXILIARY/J BASIS SET INFORMATION
---------------------------------
There are 4 groups of distinct atoms

 Group   1 Type O   : 12s5p4d2f1g contracted to 6s4p3d1f1g pattern {711111/2111/211/2/1}
 Group   2 Type N   : 12s5p4d2f1g contracted to 6s4p3d1f1g pattern {711111/2111/211/2/1}
 Group   3 Type C   : 12s5p4d2f1g contracted to 6s4p3d1f1g pattern {711111/2111/211/2/1}
 Group   4 Type H   : 5s2p1d contracted to 3s1p1d pattern {311/2/1}

Atom   0O    basis set group =>   1
Atom   1O    basis set group =>   1
Atom   2N    basis set group =>   2
Atom   3C    basis set group =>   3
Atom   4C    basis set group =>   3
Atom   5C    basis set group =>   3
Atom   6C    basis set group =>   3
Atom   7C    basis set group =>   3
Atom   8C    basis set group =>   3
Atom   9C    basis set group =>   3
Atom  10C    basis set group =>   3
Atom  11C    basis set group =>   3
Atom  12H    basis set group =>   4
Atom  13H    basis set group =>   4
Atom  14H    basis set group =>   4
Atom  15H    basis set group =>   4
Atom  16H    basis set group =>   4
Atom  17H    basis set group =>   4
Atom  18H    basis set group =>   4
Atom  19H    basis set group =>   4
Atom  20H    basis set group =>   4
Atom  21H    basis set group =>   4
Atom  22H    basis set group =>   4


           ************************************************************
           *        Program running with 2 parallel MPI-processes     *
           *              working on a common directory               *
           ************************************************************
------------------------------------------------------------------------------
                             ORCA STARTUP CALCULATIONS
                           -- RI-GTO INTEGRALS CHOSEN --
------------------------------------------------------------------------------
------------------------------------------------------------------------------
                   ___                                                        
                  /   \      - P O W E R E D   B Y -                         
                 /     \                                                     
                 |  |  |   _    _      __       _____    __    __             
                 |  |  |  | |  | |    /  \     |  _  \  |  |  /  |          
                  \  \/   | |  | |   /    \    | | | |  |  | /  /          
                 / \  \   | |__| |  /  /\  \   | |_| |  |  |/  /          
                |  |  |   |  __  | /  /__\  \  |    /   |      \           
                |  |  |   | |  | | |   __   |  |    \   |  |\   \          
                \     /   | |  | | |  |  |  |  | |\  \  |  | \   \       
                 \___/    |_|  |_| |__|  |__|  |_| \__\ |__|  \__/        
                                                                              
                      - O R C A' S   B I G   F R I E N D -                    
                                      &                                       
                       - I N T E G R A L  F E E D E R -                       
                                                                              
 v1 FN, 2020, v2 2021, v3 2022-2024                                           
------------------------------------------------------------------------------


----------------------
SHARK INTEGRAL PACKAGE
----------------------

Number of atoms                             ...     23
Number of basis functions                   ...    223
Number of shells                            ...    105
Maximum angular momentum                    ...      2
Integral batch strategy                     ... SHARK/LIBINT Hybrid
RI-J (if used) integral strategy            ... SPLIT-RIJ (Revised 2003 algorithm where possible)
Printlevel                                  ...      1
Contraction scheme used                     ... SEGMENTED contraction
Prescreening option                         ... SCHWARTZ
   Thresh                                   ... 2.500e-11
   Tcut                                     ... 2.500e-12
   Tpresel                                  ... 2.500e-12 
Coulomb Range Separation                    ... NOT USED
Exchange Range Separation                   ... NOT USED
Multipole approximations                    ... NOT USED
Finite Nucleus Model                        ... NOT USED
CABS basis                                  ... NOT available
Auxiliary Coulomb fitting basis             ... AVAILABLE
   # of basis functions in Aux-J            ...    709
   # of shells in Aux-J                     ...    235
   Maximum angular momentum in Aux-J        ...      4
Auxiliary J/K fitting basis                 ... NOT available
Auxiliary Correlation fitting basis         ... NOT available
Auxiliary 'external' fitting basis          ... NOT available

Checking pre-screening integrals            ... done (  0.0 sec) Dimension = 105
   => SHARK Basis and OBASIS are compatible. Storing Pre-screening
Shell pair information
Shell pair cut-off parameter TPreSel        ...   2.5e-12
Total number of shell pairs                 ...      5565
Shell pairs after pre-screening             ...      4749
Total number of primitive shell pairs       ...     28015
Primitive shell pairs kept                  ...     15105
          la=0 lb=0:   1453 shell pairs
          la=1 lb=0:   1731 shell pairs
          la=1 lb=1:    551 shell pairs
          la=2 lb=0:    589 shell pairs
          la=2 lb=1:    359 shell pairs
          la=2 lb=2:     66 shell pairs

Checking whether 4 symmetric matrices of dimension 223 fit in memory
:Max Core in MB      =   3000.00
 MB in use           =      9.86
 MB left             =   2990.14
 MB needed           =      0.76
 Data fit in memory  = YES
Calculating RI/J V-Matrix + Cholesky decomp.... done (  0.1 sec)
Calculating Nuclear repulsion               ... done (  0.0 sec) ENN=    679.439280797438 Eh

Diagonalization of the overlap matrix:
Smallest eigenvalue                        ... 4.715e-04
Time for diagonalization                   ...    0.031 sec
Threshold for overlap eigenvalues          ... 1.000e-07
Number of eigenvalues below threshold      ... 0
Time for construction of square roots      ...    0.003 sec
Total time needed                          ...    0.036 sec

-------------------
DFT GRID GENERATION
-------------------

General Integration Accuracy     IntAcc      ... 4.388
Radial Grid Type                 RadialGrid  ... OptM3 with GC (2021)
Angular Grid (max. ang.)         AngularGrid ... 4 (Lebedev-302)
Angular grid pruning method      GridPruning ... 4 (adaptive)
Weight generation scheme         WeightScheme... mBecke (2022)
Basis function cutoff            BFCut       ... 1.0000e-11
Integration weight cutoff        WCut        ... 1.0000e-14
Partially contracted basis set               ... off
Rotationally invariant grid construction     ... off
Angular grids for H and He will be reduced by one unit

Total number of grid points                  ...   107292
Total number of batches                      ...     1688
Average number of points per batch           ...       63
Average number of grid points per atom       ...     4665

--------------------
COSX GRID GENERATION
--------------------

GRIDX 1
-------
General Integration Accuracy     IntAcc      ... 3.816
Radial Grid Type                 RadialGrid  ... OptM3 with GC (2021)
Angular Grid (max. ang.)         AngularGrid ... 1 (Lebedev-50)
Angular grid pruning method      GridPruning ... 4 (adaptive)
Weight generation scheme         WeightScheme... mBecke (2022)
Basis function cutoff            BFCut       ... 1.0000e-11
Integration weight cutoff        WCut        ... 1.0000e-14
Partially contracted basis set               ... on
Rotationally invariant grid construction     ... off
Angular grids for H and He will be reduced by one unit

Total number of grid points                  ...    13640
Total number of batches                      ...      120
Average number of points per batch           ...      113
Average number of grid points per atom       ...      593
UseSFitting                                  ... on

GRIDX 2
-------
General Integration Accuracy     IntAcc      ... 4.020
Radial Grid Type                 RadialGrid  ... OptM3 with GC (2021)
Angular Grid (max. ang.)         AngularGrid ... 2 (Lebedev-110)
Angular grid pruning method      GridPruning ... 4 (adaptive)
Weight generation scheme         WeightScheme... mBecke (2022)
Basis function cutoff            BFCut       ... 1.0000e-11
Integration weight cutoff        WCut        ... 1.0000e-14
Partially contracted basis set               ... on
Rotationally invariant grid construction     ... off
Angular grids for H and He will be reduced by one unit

Total number of grid points                  ...    29622
Total number of batches                      ...      243
Average number of points per batch           ...      121
Average number of grid points per atom       ...     1288
UseSFitting                                  ... on

GRIDX 3
-------
General Integration Accuracy     IntAcc      ... 4.338
Radial Grid Type                 RadialGrid  ... OptM3 with GC (2021)
Angular Grid (max. ang.)         AngularGrid ... 3 (Lebedev-194)
Angular grid pruning method      GridPruning ... 4 (adaptive)
Weight generation scheme         WeightScheme... mBecke (2022)
Basis function cutoff            BFCut       ... 1.0000e-11
Integration weight cutoff        WCut        ... 1.0000e-14
Partially contracted basis set               ... on
Rotationally invariant grid construction     ... off
Angular grids for H and He will be reduced by one unit

Total number of grid points                  ...    64944
Total number of batches                      ...      518
Average number of points per batch           ...      125
Average number of grid points per atom       ...     2824
UseSFitting                                  ... on
Grids setup in   2.5 sec
Initializing property integral containers    ... done (  0.0 sec)

SHARK setup successfully completed in   3.0 seconds

Maximum memory used throughout the entire STARTUP-calculation: 36.7 MB


           ************************************************************
           *        Program running with 2 parallel MPI-processes     *
           *              working on a common directory               *
           ************************************************************
-------------------------------------------------------------------------------
                                 ORCA GUESS
                   Start orbitals & Density for SCF / CASSCF
-------------------------------------------------------------------------------

------------
SCF SETTINGS
------------
Hamiltonian:
 Density Functional     Method          .... DFT(GTOs)
 Exchange Functional    Exchange        .... B88
   X-Alpha parameter    XAlpha          ....  0.666667
   Becke's b parameter  XBeta           ....  0.004200
 Correlation Functional Correlation     .... LYP
 LDA part of GGA corr.  LDAOpt          .... VWN-5
 Gradients option       PostSCFGGA      .... off
 Hybrid DFT is turned on
   Fraction HF Exchange ScalHFX         ....  0.200000
   Scaling of DF-GGA-X  ScalDFX         ....  0.720000
   Scaling of DF-GGA-C  ScalDFC         ....  0.810000
   Scaling of DF-LDA-C  ScalLDAC        ....  1.000000
   Perturbative correction              ....  0.000000
   NL short-range parameter             ....  4.800000
 RI-approximation to the Coulomb term is turned on
   Number of AuxJ basis functions       .... 709
   RIJ-COSX (HFX calculated with COS-X)).... on


General Settings:
 Integral files         IntName         .... /kaggle/working/Phe-1/Phe_InterFrag
 Hartree-Fock type      HFTyp           .... RHF
 Total Charge           Charge          ....    0
 Multiplicity           Mult            ....    1
 Number of Electrons    NEL             ....   88
 Basis Dimension        Dim             ....  223
 Nuclear Repulsion      ENuc            ....    679.4392807974 Eh

Convergence Acceleration:
 AO-DIIS                CNVDIIS         .... on
   Start iteration      DIISMaxIt       ....    12
   Startup error        DIISStart       ....  0.200000
   # of expansion vecs  DIISMaxEq       ....     5
   Bias factor          DIISBfac        ....   1.050
   Max. coefficient     DIISMaxC        ....  10.000
 MO-DIIS                CNVKDIIS        .... off
 Trust-Rad. Augm. Hess. CNVTRAH         .... auto
   Auto Start mean grad. ratio tolernc. ....  1.125000
   Auto Start start iteration           ....    50
   Auto Start num. interpolation iter.  ....    10
   Max. Number of Micro iterations      ....    24
   Max. Number of Macro iterations      .... Maxiter - #DIIS iter
   Number of Davidson start vectors     ....     2
   Converg. threshold    (grad. norm)   ....   1.000e-05
   Grad. Scal. Fac. for Micro threshold ....   0.100
   Minimum threshold for Micro iter.    ....   1.000e-02
   NR start threshold (gradient norm)   ....   1.000e-04
   Initial trust radius                 ....   0.400
   Minimum AH scaling param. (alpha)    ....   1.000
   Maximum AH scaling param. (alpha)    .... 1000.000
   Quad. conv. algorithm                .... NR
   White noise on init. David. guess    .... on
   Maximum white noise                  ....   0.010
   Pseudo random numbers                .... off
   Inactive MOs                         .... canonical
   Orbital update algorithm             .... Taylor
   Preconditioner                       .... Diag
   Full preconditioner red. dimension   ....   250
 SOSCF                 CNVSOSCF           .... on
   Start iteration     SOSCFMaxIt         ....   150
   Startup grad/error  SOSCFStart         ....  0.000330
   Hessian update      SOSCFHessUp        .... L-BFGS
   Autom. constraints  SOSCFAutoConstrain .... off
 Level Shifting         CNVShift        .... on
   Level shift para.    LevelShift      ....    0.2500
   Turn off err/grad.   ShiftErr        ....    0.0010
 Zerner damping         CNVZerner       .... off
 Static damping         CNVDamp         .... on
   Fraction old density DampFac         ....    0.7000
   Max. Damping (<1)    DampMax         ....    0.9800
   Min. Damping (>=0)   DampMin         ....    0.0000
   Turn off err/grad.   DampErr         ....    0.1000

SCF Procedure:
 Maximum # iterations   MaxIter         ....  1000
 SCF integral mode      SCFMode         .... Direct
   Integral package                     .... SHARK and LIBINT hybrid scheme
 Reset frequency        DirectResetFreq ....    20
 Integral Threshold     Thresh          ....  2.500e-11 Eh
 Primitive CutOff       TCut            ....  2.500e-12 Eh

Convergence Tolerance:
 Convergence Check Mode ConvCheckMode   .... Total+1el-Energy
 Convergence forced     ConvForced      .... 0
 Energy Change          TolE            ....  1.000e-08 Eh
 1-El. energy change                    ....  1.000e-05 Eh
 Orbital Gradient       TolG            ....  1.000e-05
 Orbital Rotation angle TolX            ....  1.000e-05
 DIIS Error             TolErr          ....  5.000e-07

------------------------------
INITIAL GUESS: MODEL POTENTIAL
------------------------------
Loading Hartree-Fock densities                     ... done
Calculating cut-offs                               ... done
Initializing the effective Hamiltonian             ... done
Setting up the integral package (SHARK)            ... done
Starting the Coulomb interaction                   ... done (   0.2 sec)
Making the grid                                    ... done (   0.3 sec)
Mapping shells                                     ... done
Starting the XC term evaluation                    ... done (   0.2 sec)
  promolecular density results
     # of electrons  =     87.997104646
     EX              =    -72.512693487
     EC              =     -2.983414076
     EX+EC           =    -75.496107564
Transforming the Hamiltonian                       ... done (   0.0 sec)
Diagonalizing the Hamiltonian                      ... done (   0.0 sec)
Back transforming the eigenvectors                 ... done (   0.0 sec)
Now organizing SCF variables                       ... done
                      ------------------
                      INITIAL GUESS DONE (   0.8 sec)
                      ------------------
             **** ENERGY FILE WAS UPDATED (/kaggle/working/Phe-1/Phe_InterFrag.en.tmp) ****
Finished Guess after   1.1 sec
Maximum memory used throughout the entire GUESS-calculation: 14.3 MB


           ************************************************************
           *        Program running with 2 parallel MPI-processes     *
           *              working on a common directory               *
           ************************************************************

-------------------------------------------------------------------------------------------
                                      ORCA LEAN-SCF
                              memory conserving SCF solver
-------------------------------------------------------------------------------------------

--------------------
CPCM SOLVATION MODEL
--------------------
CPCM parameters:
  Epsilon                                         ...      78.3550
  Refrac                                          ...       1.3328
  Rsolv                                           ...       1.3000
  Surface type                                    ... GAUSSIAN VDW
  Discretization scheme                           ... Constant charge density
    Threshold for H atoms                         ...       5.0000 (charges/Ang^2)
    Threshold for non-H atoms                     ...       5.0000 (charges/Ang^2)
  Epsilon function type                           ...         CPCM
Solvent:                                          ... WATER
SMD-CDS solvent descriptors:
  Soln                                            ...       1.3328
  Soln25                                          ...       1.3323
  Sola                                            ...       0.0000
  Solb                                            ...       0.0000
  Solg                                            ...       0.0000
  Solc                                            ...       0.0000
  Solh                                            ...       0.0000
Radii:
  Scheme                                          ... Element-dependent radii
  Radius for O  used is    2.8724 Bohr (=   1.5200 Ang.)
  Radius for N  used is    3.5716 Bohr (=   1.8900 Ang.)
  Radius for C  used is    3.4960 Bohr (=   1.8500 Ang.)
  Radius for H  used is    2.2677 Bohr (=   1.2000 Ang.)
Calculating surface                               ...        done! (  0.0s)
Cavity surface points                             ...         1754
Cavity Volume                                     ...    1162.3504
Cavity Surface-area                               ...     715.7361
Calculating surface distance matrix               ...        done! (  0.0s)
Performing Cholesky decomposition & store         ...        done! (  0.1s)
Overall time for CPCM initialization              ...                 0.2s

----------------------------------------D-I-I-S--------------------------------------------
Iteration    Energy (Eh)           Delta-E    RMSDP     MaxDP     DIISErr   Damp  Time(sec)
-------------------------------------------------------------------------------------------
               ***  Starting incremental Fock matrix formation  ***
    1    -554.1338320831655437     0.00e+00  3.80e-03  8.58e-02  2.56e-01  0.700   7.0
    2    -554.2999403774135772    -1.66e-01  2.54e-03  5.05e-02  1.16e-01  0.700   3.5
                               ***Turning on AO-DIIS***
    3    -554.3657256829978905    -6.58e-02  1.04e-03  1.43e-02  3.67e-02  0.700   3.5
    4    -554.4053721765367300    -3.96e-02  1.65e-03  2.04e-02  1.68e-02  0.000   3.3
    5    -554.4918737785178564    -8.65e-02  3.63e-04  6.48e-03  5.91e-03  0.000   3.3
    6    -554.4923947386878353    -5.21e-04  1.20e-04  2.22e-03  2.28e-03  0.000   3.1
    7    -554.4924246122654949    -2.99e-05  4.55e-05  7.99e-04  4.15e-04  0.000   2.9
               *** Restarting incremental Fock matrix formation ***
                             ****Resetting DIIS****
    8    -554.4924372851533008    -1.27e-05  3.12e-05  7.52e-04  4.55e-04  0.000   6.4
    9    -554.4924367512192021     5.34e-07  1.38e-05  5.30e-04  8.21e-04  0.000   4.2
                              *** Initializing SOSCF ***
---------------------------------------S-O-S-C-F--------------------------------------
Iteration    Energy (Eh)           Delta-E    RMSDP     MaxDP     MaxGrad    Time(sec)
--------------------------------------------------------------------------------------
   10    -554.4924380023976482    -1.25e-06  2.70e-06  7.11e-05  9.13e-05     3.6
               *** Restarting incremental Fock matrix formation ***
   11    -554.4924380204288354    -1.80e-08  2.68e-06  7.50e-05  1.48e-05     6.5
   12    -554.4924380199042844     5.25e-10  1.58e-06  3.96e-05  2.66e-05     3.2
                 **** Energy Check signals convergence ****

               *****************************************************
               *                     SUCCESS                       *
               *           SCF CONVERGED AFTER  12 CYCLES          *
               *****************************************************

Recomputing exchange energy using gridx3       ... done (    9.900 sec)
Old exchange energy                            :    -14.750504223 Eh
New exchange energy                            :    -14.750500946 Eh
Exchange energy change after final integration :      0.000003277 Eh
Total energy after final integration           :   -554.492434755 Eh

SMD CDS free energy correction energy :                 4.38266     Kcal/mol
Total Energy after SMD CDS correction =              -554.485450537 Eh
             **** ENERGY FILE WAS UPDATED (/kaggle/working/Phe-1/Phe_InterFrag.en.tmp) ****

----------------
TOTAL SCF ENERGY
----------------

Total Energy       :       -554.48545053747773 Eh          -15088.31618 eV

Components:
Nuclear Repulsion  :        679.43928079743841 Eh           18488.48277 eV
Electronic Energy  :      -1233.90071668046403 Eh          -33576.14548 eV
One Electron Energy:      -2101.68580793571209 Eh          -57189.77831 eV
Two Electron Energy:        867.78509125524806 Eh           23613.63283 eV
CPCM Dielectric    :         -0.03100214951997 Eh              -0.84361 eV
SMD CDS (Gcds)     :          0.00698421785317 Eh               0.19005 eV

Virial components:
Potential Energy   :      -1105.57794525825079 Eh          -30084.30535 eV
Kinetic Energy     :        551.09249472077306 Eh           14995.98916 eV
Virial Ratio       :          2.00615678102897

DFT components:
N(Alpha)           :       43.999995809369 electrons
N(Beta)            :       43.999995809369 electrons
N(Total)           :       87.999991618737 electrons
E(X)               :      -58.578533144058 Eh       
E(C)               :       -3.522372453444 Eh       
E(XC)              :      -62.100905597501 Eh       

CPCM Solvation Model Properties:
Surface-charge          :         -0.03651630945928
Corrected charge        :          0.00000000000000
Outlying charge corr.   :          0.00009233813414 Eh               0.00251 eV
Free-energy (cav+disp)  :          0.00698421785317 Eh               0.19005 eV

---------------
SCF CONVERGENCE
---------------

  Last Energy change         ...   -5.2455e-10  Tolerance :   1.0000e-08
  Last MAX-Density change    ...    3.9553e-05  Tolerance :   1.0000e-07
  Last RMS-Density change    ...    1.5798e-06  Tolerance :   5.0000e-09
  Last DIIS Error            ...    9.1326e-05  Tolerance :   5.0000e-07
  Last Orbital Gradient      ...    2.6581e-05  Tolerance :   1.0000e-05
  Last Orbital Rotation      ...    3.1859e-05  Tolerance :   1.0000e-05


----------------
ORBITAL ENERGIES
----------------

  NO   OCC          E(Eh)            E(eV) 
   0   2.0000     -19.188544      -522.1468 
   1   2.0000     -19.141049      -520.8544 
   2   2.0000     -14.300602      -389.1392 
   3   2.0000     -10.320092      -280.8240 
   4   2.0000     -10.217143      -278.0226 
   5   2.0000     -10.178710      -276.9768 
   6   2.0000     -10.175418      -276.8872 
   7   2.0000     -10.175175      -276.8806 
   8   2.0000     -10.174446      -276.8608 
   9   2.0000     -10.173594      -276.8376 
  10   2.0000     -10.172300      -276.8023 
  11   2.0000     -10.171860      -276.7904 
  12   2.0000      -1.095236       -29.8029 
  13   2.0000      -1.011119       -27.5139 
  14   2.0000      -0.884659       -24.0728 
  15   2.0000      -0.848916       -23.1002 
  16   2.0000      -0.769607       -20.9421 
  17   2.0000      -0.736091       -20.0300 
  18   2.0000      -0.713906       -19.4264 
  19   2.0000      -0.662119       -18.0172 
  20   2.0000      -0.596594       -16.2342 
  21   2.0000      -0.587722       -15.9927 
  22   2.0000      -0.566462       -15.4142 
  23   2.0000      -0.518728       -14.1153 
  24   2.0000      -0.499961       -13.6046 
  25   2.0000      -0.482645       -13.1334 
  26   2.0000      -0.459331       -12.4990 
  27   2.0000      -0.447066       -12.1653 
  28   2.0000      -0.444486       -12.0951 
  29   2.0000      -0.430807       -11.7229 
  30   2.0000      -0.417571       -11.3627 
  31   2.0000      -0.410004       -11.1568 
  32   2.0000      -0.397246       -10.8096 
  33   2.0000      -0.389149       -10.5893 
  34   2.0000      -0.371624       -10.1124 
  35   2.0000      -0.355641        -9.6775 
  36   2.0000      -0.352236        -9.5848 
  37   2.0000      -0.330244        -8.9864 
  38   2.0000      -0.326081        -8.8731 
  39   2.0000      -0.318422        -8.6647 
  40   2.0000      -0.280468        -7.6319 
  41   2.0000      -0.246892        -6.7183 
  42   2.0000      -0.244690        -6.6584 
  43   2.0000      -0.224637        -6.1127 
  44   0.0000      -0.000102        -0.0028 
  45   0.0000       0.004337         0.1180 
  46   0.0000       0.011372         0.3095 
  47   0.0000       0.100189         2.7263 
  48   0.0000       0.103157         2.8070 
  49   0.0000       0.113328         3.0838 
  50   0.0000       0.136443         3.7128 
  51   0.0000       0.144999         3.9456 
  52   0.0000       0.161049         4.3824 
  53   0.0000       0.167684         4.5629 
  54   0.0000       0.177411         4.8276 
  55   0.0000       0.184223         5.0130 
  56   0.0000       0.200346         5.4517 
  57   0.0000       0.202203         5.5022 
  58   0.0000       0.212722         5.7885 
  59   0.0000       0.223314         6.0767 
  60   0.0000       0.260980         7.1016 
  61   0.0000       0.270986         7.3739 
  62   0.0000       0.282865         7.6972 
  63   0.0000       0.314777         8.5655 
  64   0.0000       0.324488         8.8298 
  65   0.0000       0.339962         9.2508 
  66   0.0000       0.347642         9.4598 
  67   0.0000       0.364640         9.9224 
  68   0.0000       0.369793        10.0626 
  69   0.0000       0.459262        12.4971 
  70   0.0000       0.513072        13.9614 
  71   0.0000       0.532653        14.4942 
  72   0.0000       0.542246        14.7553 
  73   0.0000       0.546513        14.8714 
  74   0.0000       0.557130        15.1603 
  75   0.0000       0.564147        15.3512 
  76   0.0000       0.585947        15.9444 
  77   0.0000       0.600501        16.3405 
  78   0.0000       0.606522        16.5043 
  79   0.0000       0.608955        16.5705 
  80   0.0000       0.611646        16.6437 
  81   0.0000       0.626471        17.0471 
  82   0.0000       0.630799        17.1649 
  83   0.0000       0.640497        17.4288 
  84   0.0000       0.648759        17.6536 
  85   0.0000       0.658121        17.9084 
  86   0.0000       0.663285        18.0489 
  87   0.0000       0.696404        18.9501 
  88   0.0000       0.718237        19.5442 
  89   0.0000       0.729140        19.8409 
  90   0.0000       0.756573        20.5874 
  91   0.0000       0.760679        20.6991 
  92   0.0000       0.785165        21.3654 
  93   0.0000       0.799350        21.7514 
  94   0.0000       0.814394        22.1608 
  95   0.0000       0.825874        22.4732 
  96   0.0000       0.833020        22.6676 
  97   0.0000       0.836298        22.7568 
  98   0.0000       0.841807        22.9067 
  99   0.0000       0.859636        23.3919 
 100   0.0000       0.864786        23.5320 
 101   0.0000       0.872393        23.7390 
 102   0.0000       0.897300        24.4168 
 103   0.0000       0.900845        24.5132 
 104   0.0000       0.916155        24.9299 
 105   0.0000       0.926593        25.2139 
 106   0.0000       0.943260        25.6674 
 107   0.0000       0.960100        26.1256 
 108   0.0000       0.971638        26.4396 
 109   0.0000       0.980599        26.6834 
 110   0.0000       1.005459        27.3599 
 111   0.0000       1.007196        27.4072 
 112   0.0000       1.016664        27.6648 
 113   0.0000       1.051818        28.6214 
 114   0.0000       1.088239        29.6125 
 115   0.0000       1.106138        30.0995 
 116   0.0000       1.131370        30.7862 
 117   0.0000       1.132046        30.8045 
 118   0.0000       1.159988        31.5649 
 119   0.0000       1.179605        32.0987 
 120   0.0000       1.212779        33.0014 
 121   0.0000       1.252843        34.0916 
 122   0.0000       1.268564        34.5194 
 123   0.0000       1.340232        36.4696 
 124   0.0000       1.358793        36.9746 
 125   0.0000       1.378692        37.5161 
 126   0.0000       1.410525        38.3823 
 127   0.0000       1.412273        38.4299 
 128   0.0000       1.422514        38.7086 
 129   0.0000       1.426894        38.8278 
 130   0.0000       1.433316        39.0025 
 131   0.0000       1.450056        39.4580 
 132   0.0000       1.477320        40.1999 
 133   0.0000       1.484949        40.4075 
 134   0.0000       1.509476        41.0749 
 135   0.0000       1.568753        42.6879 
 136   0.0000       1.601258        43.5725 
 137   0.0000       1.691214        46.0203 
 138   0.0000       1.710418        46.5428 
 139   0.0000       1.745100        47.4866 
 140   0.0000       1.751996        47.6742 
 141   0.0000       1.769592        48.1531 
 142   0.0000       1.795611        48.8611 
 143   0.0000       1.800352        48.9901 
 144   0.0000       1.819119        49.5008 
 145   0.0000       1.835573        49.9485 
 146   0.0000       1.851599        50.3846 
 147   0.0000       1.887781        51.3691 
 148   0.0000       1.907057        51.8937 
 149   0.0000       1.914065        52.0844 
 150   0.0000       1.926554        52.4242 
 151   0.0000       1.944081        52.9011 
 152   0.0000       1.951383        53.0998 
 153   0.0000       1.978086        53.8265 
 154   0.0000       1.982761        53.9537 
 155   0.0000       1.995001        54.2867 
 156   0.0000       1.997748        54.3615 
 157   0.0000       2.002687        54.4959 
 158   0.0000       2.015179        54.8358 
 159   0.0000       2.019221        54.9458 
 160   0.0000       2.092055        56.9277 
 161   0.0000       2.104643        57.2703 
 162   0.0000       2.123610        57.7864 
 163   0.0000       2.142367        58.2968 
 164   0.0000       2.200308        59.8734 
 165   0.0000       2.219319        60.3907 
 166   0.0000       2.263016        61.5798 
 167   0.0000       2.284361        62.1606 
 168   0.0000       2.287805        62.2543 
 169   0.0000       2.301553        62.6284 
 170   0.0000       2.311149        62.8896 
 171   0.0000       2.330461        63.4151 
 172   0.0000       2.339241        63.6540 
 173   0.0000       2.359724        64.2114 
 174   0.0000       2.373416        64.5839 
 175   0.0000       2.390500        65.0488 
 176   0.0000       2.398216        65.2588 
 177   0.0000       2.426328        66.0237 
 178   0.0000       2.434150        66.2366 
 179   0.0000       2.459074        66.9148 
 180   0.0000       2.462307        67.0028 
 181   0.0000       2.475986        67.3750 
 182   0.0000       2.490852        67.7795 
 183   0.0000       2.512684        68.3736 
 184   0.0000       2.521772        68.6209 
 185   0.0000       2.535468        68.9936 
 186   0.0000       2.542840        69.1942 
 187   0.0000       2.553622        69.4876 
 188   0.0000       2.598573        70.7108 
 189   0.0000       2.610379        71.0320 
 190   0.0000       2.633754        71.6681 
 191   0.0000       2.653995        72.2189 
 192   0.0000       2.674939        72.7888 
 193   0.0000       2.692228        73.2593 
 194   0.0000       2.711004        73.7702 
 195   0.0000       2.724763        74.1446 
 196   0.0000       2.752412        74.8969 
 197   0.0000       2.759616        75.0930 
 198   0.0000       2.788756        75.8859 
 199   0.0000       2.816031        76.6281 
 200   0.0000       2.832252        77.0695 
 201   0.0000       2.857252        77.7498 
 202   0.0000       2.885858        78.5282 
 203   0.0000       2.903598        79.0109 
 204   0.0000       2.923523        79.5531 
 205   0.0000       2.980873        81.1137 
 206   0.0000       3.049924        82.9927 
 207   0.0000       3.077532        83.7439 
 208   0.0000       3.091893        84.1347 
 209   0.0000       3.177462        86.4631 
 210   0.0000       3.218214        87.5721 
 211   0.0000       3.252535        88.5060 
 212   0.0000       3.262333        88.7726 
 213   0.0000       3.318519        90.3015 
 214   0.0000       3.329962        90.6129 
 215   0.0000       3.367928        91.6460 
 216   0.0000       3.373600        91.8003 
 217   0.0000       3.457250        94.0766 
 218   0.0000       3.462239        94.2123 
 219   0.0000       3.531156        96.0876 
 220   0.0000       3.537385        96.2571 
 221   0.0000       3.562742        96.9471 
 222   0.0000       3.949131       107.4613 

                    ********************************
                    * MULLIKEN POPULATION ANALYSIS *
                    ********************************

-----------------------
MULLIKEN ATOMIC CHARGES
-----------------------
   0 O :   -0.504565
   1 O :   -0.510812
   2 N :   -0.625750
   3 C :   -0.250400
   4 C :   -0.007095
   5 C :    0.088706
   6 C :   -0.131878
   7 C :   -0.132143
   8 C :    0.583691
   9 C :   -0.119842
  10 C :   -0.118030
  11 C :   -0.111593
  12 H :    0.122453
  13 H :    0.125986
  14 H :    0.142626
  15 H :    0.110704
  16 H :    0.109668
  17 H :    0.268297
  18 H :    0.260771
  19 H :    0.109111
  20 H :    0.109387
  21 H :    0.107758
  22 H :    0.372948
Sum of atomic charges:   -0.0000000

--------------------------------
MULLIKEN REDUCED ORBITAL CHARGES
--------------------------------
  0 O s       :     3.827537  s :     3.827537
      pz      :     1.666310  p :     4.656011
      px      :     1.688134
      py      :     1.301566
      dz2     :     0.004921  d :     0.021018
      dxz     :     0.004233
      dyz     :     0.002855
      dx2y2   :     0.003196
      dxy     :     0.005812

  1 O s       :     3.848236  s :     3.848236
      pz      :     1.477177  p :     4.636900
      px      :     1.407408
      py      :     1.752315
      dz2     :     0.005824  d :     0.025676
      dxz     :     0.006578
      dyz     :     0.002887
      dx2y2   :     0.005745
      dxy     :     0.004643

  2 N s       :     3.589736  s :     3.589736
      pz      :     1.431486  p :     4.007435
      px      :     1.429794
      py      :     1.146155
      dz2     :     0.011049  d :     0.028579
      dxz     :     0.003056
      dyz     :     0.000770
      dx2y2   :     0.005954
      dxy     :     0.007751

  3 C s       :     3.237231  s :     3.237231
      pz      :     0.979157  p :     2.975673
      px      :     0.936730
      py      :     1.059786
      dz2     :     0.008166  d :     0.037496
      dxz     :     0.008988
      dyz     :     0.004826
      dx2y2   :     0.010106
      dxy     :     0.005409

  4 C s       :     3.193479  s :     3.193479
      pz      :     1.015372  p :     2.756883
      px      :     0.882168
      py      :     0.859343
      dz2     :     0.012594  d :     0.056733
      dxz     :     0.012402
      dyz     :     0.004875
      dx2y2   :     0.013282
      dxy     :     0.013580

  5 C s       :     3.140997  s :     3.140997
      pz      :     0.930619  p :     2.728156
      px      :     0.907903
      py      :     0.889635
      dz2     :     0.005302  d :     0.042140
      dxz     :     0.006442
      dyz     :     0.006873
      dx2y2   :     0.011815
      dxy     :     0.011709

  6 C s       :     3.185295  s :     3.185295
      pz      :     0.999730  p :     2.911435
      px      :     0.956166
      py      :     0.955540
      dz2     :     0.002920  d :     0.035148
      dxz     :     0.005688
      dyz     :     0.006115
      dx2y2   :     0.009580
      dxy     :     0.010845

  7 C s       :     3.185821  s :     3.185821
      pz      :     0.984382  p :     2.911219
      px      :     0.948726
      py      :     0.978111
      dz2     :     0.004441  d :     0.035103
      dxz     :     0.006112
      dyz     :     0.004341
      dx2y2   :     0.010553
      dxy     :     0.009655

  8 C s       :     2.987484  s :     2.987484
      pz      :     0.720711  p :     2.309235
      px      :     0.742490
      py      :     0.846033
      dz2     :     0.022901  d :     0.119591
      dxz     :     0.020204
      dyz     :     0.022562
      dx2y2   :     0.021876
      dxy     :     0.032048

  9 C s       :     3.190697  s :     3.190697
      pz      :     0.972688  p :     2.894061
      px      :     0.940074
      py      :     0.981299
      dz2     :     0.004500  d :     0.035084
      dxz     :     0.006201
      dyz     :     0.004181
      dx2y2   :     0.010655
      dxy     :     0.009547

 10 C s       :     3.190386  s :     3.190386
      pz      :     0.985720  p :     2.892561
      px      :     0.961819
      py      :     0.945022
      dz2     :     0.002862  d :     0.035083
      dxz     :     0.005835
      dyz     :     0.006058
      dx2y2   :     0.009471
      dxy     :     0.010858

 11 C s       :     3.181925  s :     3.181925
      pz      :     0.985023  p :     2.894937
      px      :     0.971590
      py      :     0.938324
      dz2     :     0.004323  d :     0.034732
      dxz     :     0.004143
      dyz     :     0.006136
      dx2y2   :     0.010131
      dxy     :     0.010000

 12 H s       :     0.866013  s :     0.866013
      pz      :     0.005988  p :     0.011533
      px      :     0.002480
      py      :     0.003066

 13 H s       :     0.862443  s :     0.862443
      pz      :     0.002429  p :     0.011570
      px      :     0.002129
      py      :     0.007012

 14 H s       :     0.846394  s :     0.846394
      pz      :     0.006640  p :     0.010980
      px      :     0.002493
      py      :     0.001847

 15 H s       :     0.876915  s :     0.876915
      pz      :     0.003905  p :     0.012380
      px      :     0.004387
      py      :     0.004088

 16 H s       :     0.877946  s :     0.877946
      pz      :     0.002812  p :     0.012386
      px      :     0.002341
      py      :     0.007234

 17 H s       :     0.708250  s :     0.708250
      pz      :     0.005904  p :     0.023453
      px      :     0.005839
      py      :     0.011710

 18 H s       :     0.715698  s :     0.715698
      pz      :     0.011912  p :     0.023531
      px      :     0.007184
      py      :     0.004436

 19 H s       :     0.878550  s :     0.878550
      pz      :     0.002753  p :     0.012338
      px      :     0.002401
      py      :     0.007184

 20 H s       :     0.878268  s :     0.878268
      pz      :     0.003846  p :     0.012345
      px      :     0.004452
      py      :     0.004047

 21 H s       :     0.879876  s :     0.879876
      pz      :     0.002835  p :     0.012365
      px      :     0.006871
      py      :     0.002659

 22 H s       :     0.590040  s :     0.590040
      pz      :     0.007048  p :     0.037012
      px      :     0.009202
      py      :     0.020761


------------------------
MULLIKEN OVERLAP CHARGES
------------------------
B(  0-O ,  1-O ) :  -0.1586 B(  0-O ,  4-C ) :  -0.1561 B(  0-O ,  8-C ) :   0.6042 
B(  0-O , 22-H ) :   0.5596 B(  1-O ,  4-C ) :  -0.1559 B(  1-O ,  8-C ) :   1.2205 
B(  2-N ,  3-C ) :  -0.1352 B(  2-N ,  4-C ) :   0.6329 B(  2-N ,  8-C ) :  -0.0906 
B(  2-N , 14-H ) :  -0.0747 B(  2-N , 17-H ) :   0.6975 B(  2-N , 18-H ) :   0.6877 
B(  3-C ,  4-C ) :   0.7164 B(  3-C ,  5-C ) :   0.6228 B(  3-C ,  6-C ) :  -0.1073 
B(  3-C ,  7-C ) :  -0.1110 B(  3-C ,  8-C ) :  -0.0614 B(  3-C , 12-H ) :   0.7199 
B(  3-C , 13-H ) :   0.7535 B(  3-C , 14-H ) :  -0.0898 B(  4-C ,  5-C ) :  -0.0798 
B(  4-C ,  8-C ) :   0.6279 B(  4-C , 12-H ) :  -0.0688 B(  4-C , 13-H ) :  -0.0636 
B(  4-C , 14-H ) :   0.7548 B(  4-C , 17-H ) :  -0.0726 B(  4-C , 18-H ) :  -0.0801 
B(  5-C ,  6-C ) :   1.0979 B(  5-C ,  7-C ) :   1.1088 B(  5-C , 11-C ) :  -0.0736 
B(  5-C , 13-H ) :  -0.0598 B(  5-C , 15-H ) :  -0.0852 B(  5-C , 16-H ) :  -0.0843 
B(  6-C ,  7-C ) :  -0.0864 B(  6-C ,  9-C ) :   1.0294 B(  6-C , 10-C ) :  -0.0922 
B(  6-C , 11-C ) :  -0.0859 B(  6-C , 15-H ) :   0.7493 B(  6-C , 19-H ) :  -0.0725 
B(  7-C ,  9-C ) :  -0.0911 B(  7-C , 10-C ) :   1.0365 B(  7-C , 11-C ) :  -0.0855 
B(  7-C , 16-H ) :   0.7483 B(  7-C , 20-H ) :  -0.0734 B(  8-C , 14-H ) :  -0.0662 
B(  9-C , 10-C ) :  -0.0571 B(  9-C , 11-C ) :   1.0959 B(  9-C , 15-H ) :  -0.0847 
B(  9-C , 19-H ) :   0.7386 B(  9-C , 21-H ) :  -0.0821 B( 10-C , 11-C ) :   1.0950 
B( 10-C , 16-H ) :  -0.0858 B( 10-C , 20-H ) :   0.7395 B( 10-C , 21-H ) :  -0.0821 
B( 11-C , 19-H ) :  -0.0815 B( 11-C , 20-H ) :  -0.0815 B( 11-C , 21-H ) :   0.7492 
B( 12-H , 13-H ) :  -0.0671 B( 17-H , 18-H ) :  -0.0603 


                     *******************************
                     * LOEWDIN POPULATION ANALYSIS *
                     *******************************

----------------------
LOEWDIN ATOMIC CHARGES
----------------------
   0 O :   -0.163288
   1 O :   -0.295104
   2 N :   -0.280957
   3 C :   -0.117755
   4 C :   -0.033942
   5 C :   -0.021957
   6 C :   -0.088581
   7 C :   -0.086950
   8 C :    0.174171
   9 C :   -0.080329
  10 C :   -0.079756
  11 C :   -0.091170
  12 H :    0.083081
  13 H :    0.086203
  14 H :    0.092261
  15 H :    0.083178
  16 H :    0.083447
  17 H :    0.139402
  18 H :    0.134566
  19 H :    0.081858
  20 H :    0.082091
  21 H :    0.081771
  22 H :    0.217760

-------------------------------
LOEWDIN REDUCED ORBITAL CHARGES
-------------------------------
  0 O s       :     3.476320  s :     3.476320
      pz      :     1.654851  p :     4.641677
      px      :     1.676577
      py      :     1.310249
      dz2     :     0.008179  d :     0.045291
      dxz     :     0.007533
      dyz     :     0.008829
      dx2y2   :     0.008614
      dxy     :     0.012136

  1 O s       :     3.560717  s :     3.560717
      pz      :     1.490194  p :     4.682471
      px      :     1.456632
      py      :     1.735645
      dz2     :     0.008257  d :     0.051916
      dxz     :     0.016776
      dyz     :     0.005649
      dx2y2   :     0.010823
      dxy     :     0.010411

  2 N s       :     3.197070  s :     3.197070
      pz      :     1.419857  p :     4.028085
      px      :     1.441291
      py      :     1.166937
      dz2     :     0.018001  d :     0.055802
      dxz     :     0.006756
      dyz     :     0.002258
      dx2y2   :     0.012494
      dxy     :     0.016293

  3 C s       :     2.899089  s :     2.899089
      pz      :     1.047934  p :     3.136887
      px      :     1.010380
      py      :     1.078573
      dz2     :     0.016685  d :     0.081779
      dxz     :     0.021509
      dyz     :     0.009604
      dx2y2   :     0.022343
      dxy     :     0.011638

  4 C s       :     2.881309  s :     2.881309
      pz      :     1.068335  p :     3.026329
      px      :     0.985595
      py      :     0.972398
      dz2     :     0.026784  d :     0.126304
      dxz     :     0.028360
      dyz     :     0.009708
      dx2y2   :     0.029564
      dxy     :     0.031888

  5 C s       :     2.870402  s :     2.870402
      pz      :     0.974555  p :     3.046238
      px      :     1.016211
      py      :     1.055472
      dz2     :     0.011572  d :     0.105317
      dxz     :     0.014164
      dyz     :     0.017528
      dx2y2   :     0.031405
      dxy     :     0.030648

  6 C s       :     2.895947  s :     2.895947
      pz      :     1.007358  p :     3.106996
      px      :     1.050897
      py      :     1.048741
      dz2     :     0.006520  d :     0.085638
      dxz     :     0.012208
      dyz     :     0.013212
      dx2y2   :     0.025236
      dxy     :     0.028462

  7 C s       :     2.895307  s :     2.895307
      pz      :     1.005547  p :     3.106170
      px      :     1.049358
      py      :     1.051266
      dz2     :     0.009135  d :     0.085473
      dxz     :     0.015553
      dyz     :     0.009291
      dx2y2   :     0.026802
      dxy     :     0.024692

  8 C s       :     2.860205  s :     2.860205
      pz      :     0.827353  p :     2.686081
      px      :     0.896289
      py      :     0.962439
      dz2     :     0.049416  d :     0.279543
      dxz     :     0.051480
      dyz     :     0.052059
      dx2y2   :     0.050673
      dxy     :     0.075915

  9 C s       :     2.900529  s :     2.900529
      pz      :     0.993027  p :     3.095048
      px      :     1.052346
      py      :     1.049675
      dz2     :     0.009304  d :     0.084751
      dxz     :     0.015699
      dyz     :     0.008960
      dx2y2   :     0.026361
      dxy     :     0.024427

[...]
19 H  pz              0.2       0.1       0.0       0.1       2.0       0.0
19 H  px              0.9       0.5       0.1       0.2       0.2       0.0
19 H  py              0.0       2.0       0.1       0.0       8.5       0.0
20 H  s               0.0       0.4       0.0       0.0       2.6       0.0
20 H  pz              0.0       0.8       0.0       0.0       4.3       0.0
20 H  px              0.2       1.7       0.0       0.0       3.2       0.0
20 H  py              0.4       0.0       0.1       0.2       3.5       0.0
21 H  s               0.1       3.1       0.0       0.0       0.0       0.0
21 H  pz              0.1       1.1       0.0       0.0       0.1       0.0
21 H  px              0.3      11.4       0.1       0.0       0.0       0.0
21 H  py              1.3       2.5       0.1       0.2       0.1       0.0
22 H  s               0.4       0.1      14.7       0.1       0.0       1.2
22 H  pz              0.0       0.0       0.1       0.0       0.0       0.1
22 H  px              0.0       0.0       0.7       0.0       0.0       0.0
22 H  py              1.1       0.3      36.4       0.2       0.0       2.3

                    222   
                   3.93078
                   0.00000
                  --------
 3 C  px              0.1
 3 C  dx2y2           0.3
 3 C  dxy             0.2
 5 C  s               0.1
 5 C  dz2             0.3
 5 C  dxz             0.1
 5 C  dyz             1.3
 5 C  dx2y2           1.7
 5 C  dxy             1.7
 6 C  s               0.2
 6 C  pz              0.2
 6 C  px              0.3
 6 C  dz2             0.6
 6 C  dxz             2.5
 6 C  dyz             1.0
 6 C  dx2y2           0.3
 6 C  dxy             4.7
 7 C  s               0.2
 7 C  py              0.5
 7 C  dz2             0.3
 7 C  dxz             1.6
 7 C  dyz             1.5
 7 C  dx2y2           5.0
 7 C  dxy             0.7
 9 C  s               0.2
 9 C  pz              0.1
 9 C  py              0.7
 9 C  dz2             0.4
 9 C  dxz             1.8
 9 C  dyz             2.4
 9 C  dx2y2           6.5
 9 C  dxy             0.8
10 C  s               0.2
10 C  pz              0.3
10 C  px              0.3
10 C  py              0.2
10 C  dz2             0.7
10 C  dxz             3.3
10 C  dyz             1.6
10 C  dx2y2           0.3
10 C  dxy             5.9
11 C  s               0.3
11 C  px              0.7
11 C  py              0.2
11 C  dz2             1.2
11 C  dxz             0.6
11 C  dyz             2.4
11 C  dx2y2           4.0
11 C  dxy             4.9
12 H  pz              0.1
15 H  s               1.5
15 H  pz              1.5
15 H  px              1.5
15 H  py              0.9
16 H  s               1.5
16 H  pz              0.5
16 H  px              0.2
16 H  py              3.1
19 H  s               2.1
19 H  pz              0.6
19 H  px              0.4
19 H  py              4.2
20 H  s               2.1
20 H  pz              2.0
20 H  px              2.1
20 H  py              1.0
21 H  s               2.3
21 H  pz              0.4
21 H  px              4.4
21 H  py              1.1


                      *****************************
                      * MAYER POPULATION ANALYSIS *
                      *****************************

  NA   - Mulliken gross atomic population
  ZA   - Total nuclear charge
  QA   - Mulliken gross atomic charge
  VA   - Mayer's total valence
  BVA  - Mayer's bonded valence
  FA   - Mayer's free valence

  ATOM       NA         ZA         QA         VA         BVA        FA
  0 O      8.4871     8.0000    -0.4871     2.0415     2.0415     0.0000
  1 O      8.5144     8.0000    -0.5144     2.0171     2.0171    -0.0000
  2 N      7.6221     7.0000    -0.6221     2.8461     2.8461    -0.0000
  3 C      6.2510     6.0000    -0.2510     3.8644     3.8644     0.0000
  4 C      6.0049     6.0000    -0.0049     3.8524     3.8524     0.0000
  5 C      5.9104     6.0000     0.0896     3.9515     3.9515     0.0000
  6 C      6.1426     6.0000    -0.1426     3.9313     3.9313    -0.0000
  7 C      6.1400     6.0000    -0.1400     3.9284     3.9284     0.0000
  8 C      5.4295     6.0000     0.5705     3.9462     3.9462     0.0000
  9 C      6.1134     6.0000    -0.1134     3.9294     3.9294    -0.0000
 10 C      6.1128     6.0000    -0.1128     3.9300     3.9300    -0.0000
 11 C      6.1142     6.0000    -0.1142     3.9347     3.9347    -0.0000
 12 H      0.8783     1.0000     0.1217     0.9575     0.9575     0.0000
 13 H      0.8706     1.0000     0.1294     0.9532     0.9532     0.0000
 14 H      0.8650     1.0000     0.1350     0.9503     0.9503     0.0000
 15 H      0.8907     1.0000     0.1093     0.9599     0.9599     0.0000
 16 H      0.8910     1.0000     0.1090     0.9563     0.9563     0.0000
 17 H      0.7286     1.0000     0.2714     0.9082     0.9082     0.0000
 18 H      0.7374     1.0000     0.2626     0.9218     0.9218     0.0000
 19 H      0.8880     1.0000     0.1120     0.9542     0.9542     0.0000
 20 H      0.8880     1.0000     0.1120     0.9541     0.9541     0.0000
 21 H      0.8890     1.0000     0.1110     0.9544     0.9544    -0.0000
 22 H      0.6309     1.0000     0.3691     0.8778     0.8778    -0.0000

  Mayer bond orders larger than 0.100000
B(  0-O ,  8-C ) :   1.1243 B(  0-O , 22-H ) :   0.8250 B(  1-O ,  8-C ) :   1.8547 
B(  2-N ,  4-C ) :   1.0176 B(  2-N , 17-H ) :   0.8979 B(  2-N , 18-H ) :   0.8918 
B(  3-C ,  4-C ) :   0.9561 B(  3-C ,  5-C ) :   0.9826 B(  3-C , 12-H ) :   0.9370 
B(  3-C , 13-H ) :   0.9365 B(  4-C ,  8-C ) :   0.9308 B(  4-C , 14-H ) :   0.9292 
B(  5-C ,  6-C ) :   1.4246 B(  5-C ,  7-C ) :   1.4248 B(  6-C ,  9-C ) :   1.4302 
B(  6-C , 15-H ) :   0.9350 B(  7-C , 10-C ) :   1.4349 B(  7-C , 16-H ) :   0.9375 
B(  9-C , 11-C ) :   1.4435 B(  9-C , 19-H ) :   0.9404 B( 10-C , 11-C ) :   1.4389 
B( 10-C , 20-H ) :   0.9405 B( 11-C , 21-H ) :   0.9418 

-------
TIMINGS
-------

Total SCF time: 0 days 0 hours 0 min 48 sec 

Total time                  ....      48.763 sec
Sum of individual times     ....      46.130 sec  ( 94.6%)

SCF preparation             ....       0.564 sec  (  1.2%)
Fock matrix formation       ....      45.034 sec  ( 92.4%)
  Startup                   ....       0.006 sec  (  0.0% of F)
  Split-RI-J                ....       3.077 sec  (  6.8% of F)
  Chain of spheres X        ....      36.005 sec  ( 80.0% of F)
  XC integration            ....       5.163 sec  ( 11.5% of F)
    XC Preparation          ....       0.000 sec  (  0.0% of XC)
    Basis function eval.    ....       1.976 sec  ( 38.3% of XC)
    Density eval.           ....       1.189 sec  ( 23.0% of XC)
    XC-Functional eval.     ....       0.288 sec  (  5.6% of XC)
    XC-Potential eval.      ....       1.379 sec  ( 26.7% of XC)
  CPCM terms                ....       3.290 sec  (  7.3% of F)
Diagonalization             ....       0.000 sec  (  0.0%)
Density matrix formation    ....       0.023 sec  (  0.0%)
Total Energy calculation    ....       0.013 sec  (  0.0%)
Population analysis         ....       0.292 sec  (  0.6%)
Orbital Transformation      ....       0.031 sec  (  0.1%)
Orbital Orthonormalization  ....       0.000 sec  (  0.0%)
DIIS solution               ....       0.132 sec  (  0.3%)
  MO trafo                  ....       0.015 sec  ( 11.8 % of DIIS)
  Orb grad                  ....       0.000 sec  (  0.0 % of DIIS)
  Energy W gradient         ....       0.000 sec  (  0.0 % of DIIS)
  DIIS error                ....       0.026 sec  ( 19.7 % of DIIS)
  DIIS work                 ....       0.070 sec  ( 53.4 % of DIIS)
  Form Q                    ....       0.000 sec  (  0.0 % of DIIS)
  Form QpQm                 ....       0.000 sec  (  0.0 % of DIIS)
  Exp/Cayley                ....       0.000 sec  (  0.0 % of DIIS)
  Orb update                ....       0.000 sec  (  0.0 % of DIIS)
  Wake-sleep                ....       0.004 sec  (  3.3 % of DIIS)
SOSCF solution              ....       0.042 sec  (  0.1%)
  MO trafo                  ....       0.021 sec  ( 49.9 % of SOSCF)
  Orb grad                  ....       0.001 sec  (  2.7 % of SOSCF)
  Rot update                ....       0.002 sec  (  4.3 % of SOSCF)
  Step                      ....       0.016 sec  ( 37.0 % of SOSCF)
Finished LeanSCF after  48.9 sec

Maximum memory used throughout the entire LEANSCF-calculation: 35.2 MB


-------------------------------------------------------------------------------
                          DFT DISPERSION CORRECTION                            
                                                                               
                              DFTD3 V3.1  Rev 1                                
                          USING Becke-Johnson damping                          
-------------------------------------------------------------------------------
The B3LYP functional is recognized
Active option DFTDOPT                   ...         4   

molecular C6(AA) [au] = 5416.418183 


            DFT-D V3
 parameters
 s6 scaling factor         :     1.0000 
 a1 scaling factor         :     0.3981 
 s8 scaling factor         :     1.9889 
 a2 scaling factor         :     4.4211 
 ad hoc parameters k1-k3   :    16.0000     1.3333    -4.0000 

 Edisp/kcal,au: -27.199370008356  -0.043344950525 
 E6   /kcal   : -12.920378822 
 E8   /kcal   : -14.278991187 
 % E8         :  52.497507046 

-------------------------   ----------------
Dispersion correction           -0.043344951
-------------------------   ----------------


-------------------------   --------------------
FINAL SINGLE POINT ENERGY      -554.535367566859
-------------------------   --------------------

                                *** OPTIMIZATION RUN DONE ***



           ************************************************************
           *        Program running with 2 parallel MPI-processes     *
           *              working on a common directory               *
           ************************************************************

------------------------------------------------------------------------------
                              ORCA PROPERTY CALCULATIONS
------------------------------------------------------------------------------

GBWName                                 ... /kaggle/working/Phe-1/Phe_InterFrag.gbw
Number of atoms                         ...     23
Number of basis functions               ...    223
Max core memory                         ...   3000 MB

Electric properties:
Dipole moment                           ... YES
Quadrupole moment                       ...  NO
Static polarizability (Dipole/Dipole)   ...  NO
Static polarizability (Dipole/Quad.)    ...  NO
Static polarizability (Quad./Quad.)     ...  NO
Static polarizability (Velocity)        ...  NO
Static hyperpolarizability              ...  NO

Atomic electric properties:
Dipole moment                           ...  NO
Quadrupole moment                       ...  NO
Static polarizability                   ...  NO

Choice of electric origin               ... Center of mass
Position of electric origin             ...    -0.145346    -0.025060    -0.070134

General magnetic properties:
Magnetizability                         ...  NO

EPR properties:
g-Tensor (aka g-matrix)                 ...  NO
Zero-Field splitting spin-orbit         ...  NO
Zero-field splitting spin-spin          ...  NO
Hyperfine couplings                     ...  NO (   0 nuclei)
Quadrupole couplings                    ...  NO (   0 nuclei)
Contact density                         ...  NO (   0 nuclei)

NMR properties:
Chemical shifts                         ...  NO (   0 nuclei)
Spin-rotation constants                 ...  NO (   0 nuclei)
Spin-spin couplings                     ...  NO (   0 nuclei,    0 pairs)

Choice of magnetic origin               ... GIAO
Position of magnetic origin             ...     0.000000     0.000000     0.000000

Properties with geometric perturbations:
SCF Hessian                             ...  NO
IR spectrum                             ...  NO
VCD spectrum                            ...  NO
X-ray spectroscopy properties:
SCF XES/XAS/RIXS spectra                ...  NO

SCF SOC stabilization energy            ...  NO
Diagonal Born-Oppenheimer correction    ...  NO

-------------
DIPOLE MOMENT
-------------

Method             : SCF
Type of density    : Electron Density
Multiplicity       :   1
Irrep              :   0
Energy             :  -554.4920226163345660 Eh
Basis              : AO
                                X                 Y                 Z
Electronic contribution:     -1.173512316      -3.587584525      -1.382958912
Nuclear contribution   :      2.065090288       4.094345168       1.368648005
                        -----------------------------------------
Total Dipole Moment    :      0.891577972       0.506760643      -0.014310908
                        -----------------------------------------
Magnitude (a.u.)       :      1.025632698
Magnitude (Debye)      :      2.606951141



--------------------
Rotational spectrum 
--------------------
 
Rotational constants in cm-1:             0.059121             0.020588             0.018245 
Rotational constants in MHz :          1772.403924           617.201024           546.975612 

Dipole components along the rotational axes: 
x,y,z [a.u.] :     0.846509     0.577237    -0.046279 
x,y,z [Debye]:     2.151655     1.467220    -0.117633 

 

Dipole moment calculation done in   0.0 sec 

Maximum memory used throughout the entire PROP-calculation: 13.2 MB

--------------------------------
SUGGESTED CITATIONS FOR THIS RUN
--------------------------------

Below you find a list of papers that are relevant to this ORCA run
We neither can nor want to force you to cite these papers, but we appreciate if you do
You receive ORCA, which is the product of decades of hard work by many enthusiastic individuals, for free
The only thing we kindly ask in return is that you cite our papers,
We deeply appreciate it, if you show your appreciation for ORCA by not just citing the generic ORCA reference.

Please note that relegating all ORCA citations to the supporting information does *not* help us.
SI sections are not indexed - citations you put there will not count into any citation statistics
But we need these citations in order to attract the funding resources that allow us to do what we are doing

Therefore, if you are a happy ORCA user, please consider citing a few of the papers listed below in the main body of your paper

In addition to the list printed below, the program has created the file /kaggle/working/Phe-1/Phe_InterFrag.bibtex that contains the list in bibtex format
You can import this file easily into all common literature databanks and citation aid programs

It goes without saying that in many instances, there are alternative algorithms to achieve similar
results as the ones you have gotten from ORCA. It is, of course, also the case that in some instances
ORCA just re-implements algorithms worked out by others. We are fully aware of that and we are also
fully appreciative of our colleagues work. Hence this citation list should not be read as indicating
that the listed papers, which are focused on our own work, are the only ones worth citing. It simply
meant to make it easier for users to cite ORCA specific papers. It is not a substitute for doing your
own literature research and citing the relevant literature in a scientifically appropriate manner.

List of essential papers. We consider these as the minimum necessary citations

  1. Neese, F.
     Software update: the ORCA program system, version 6.0
     WIRES Comput. Molec. Sci. 2025 15(1), e70019
     doi.org/10.1002/wcms.70019

List of papers to cite with high priority. The work reported in these papers was absolutely
necessary for this run to complete.
Our perspective: the developers of density functionals and basis sets usually get cited in chemistry papers
Good! But without the algorithms to do something with them, the functionals or basis sets would not do anything.
Hence, in our opinion, the algorithm design and method developments papers are equally worthy of getting cited

  1. Neese, F.
     An improvement of the resolution of the identity approximation for the formation of the Coulomb matrix
     J. Comp. Chem. 2003 24(14), 1740-1747
     doi.org/10.1002/jcc.10318
  2. Neese, F.; Wennmohs, F.; Hansen, A.; Becker, U.
     Efficient, approximate and parallel Hartree-Fock and hybrid DFT calculations. A 'chain-of-spheres' algorithm for the Hartree-Fock exchange
     Chem. Phys. 2009 356(1-3), 98-109
     doi.org/10.1016/j.chemphys.2008.10.036
  3. Grimme, S.; Antony, J.; Ehrlich, S.; Krieg, H.
     A consistent and accurate ab initio parametrization of density functional dispersion correction (DFT-D) for the 94 elements H-Pu
     J. Chem. Phys. 2010 132 , 154104
     doi.org/10.1063/1.3382344
  4. Grimme, S.; Ehrlich, S.; Goerigk, L.
     Effect of the damping function in dispersion corrected density functional theory
     J. Comput. Chem. 2011 32(7), 1456-1465
     doi.org/10.1002/jcc.21759
  5. Garcia-Rates, M.; Neese, F.
     Effect of the Solute Cavity on the Solvation Energy and its Derivatives within the Framework of the Gaussian Charge Scheme
     J. Comput. Chem. 2020 41 , 922-939
     doi.org/10.1002/jcc.26139
  6. Helmich-Paris, B.; de Souza, B.; Neese, F.; Izsák, R.
     An improved chain of spheres for exchange algorithm
     J. Chem. Phys. 2021 155(10), 104109
     doi.org/10.1063/5.0058766
  7. Neese, F.
     The SHARK Integral Generation and Digestion System
     J. Comp. Chem. 2022 44(3), 381
     doi.org/10.1002/jcc.26942

List of suggested additional citations. These are papers that are important in the 'surrounding' of 
of this run, or papers that preceded the highly important papers. If you like your results we are grateful for a citation.

  1. Izsak, R.; Neese, F.
     An overlap fitted chain of spheres exchange method
     J. Chem. Phys. 2011 135 , 144105
     doi.org/10.1063/1.3646921
  2. Izsak, R.; Hansen, A.; Neese, F.
     The resolution of identity and chain of spheres approximations for the LPNO-CCSD singles Fock term
     Molec. Phys. 2012 110 , 2413-2417
     doi.org/10.1080/00268976.2012.687466
  3. Neese, F.
     The ORCA program system
     WIRES Comput. Molec. Sci. 2012 2(1), 73-78
     doi.org/10.1002/wcms.81
  4. Izsak, R.; Neese, F.; Klopper, W.
     Robust fitting techniques in the chain of spheres approximation to the Fock exchange: The role of the complementary space
     J. Chem. Phys. 2013 139 , 
     doi.org/10.1063/1.4819264
  5. Neese, F.
     Software update: the ORCA program system, version 4.0
     WIRES Comput. Molec. Sci. 2018 8(1), 1-6
     doi.org/10.1002/wcms.1327
  6. Neese, F.; Wennmohs, F.; Becker, U.; Riplinger, C.
     The ORCA quantum chemistry program package
     J. Chem. Phys. 2020 152(22), 224108
     doi.org/10.1063/5.0004608
  7. Neese, F.
     Software update: The ORCA program system—Version 5.0
     WIRES Comput. Molec. Sci. 2022 12(1), e1606
     doi.org/10.1002/wcms.1606

List of optional additional citations

  1. Neese, F.
     Approximate second-order SCF convergence for spin unrestricted wavefunctions
     Chem. Phys. Lett. 2000 325(1-3), 93-98
     doi.org/10.1016/s0009-2614(00)00662-x

Timings for individual modules:

Sum of individual times          ...      865.646 sec (=  14.427 min)
Startup calculation              ...       29.503 sec (=   0.492 min)   3.4 %
SCF iterations                   ...      544.210 sec (=   9.070 min)  62.9 %
Property calculations            ...        0.446 sec (=   0.007 min)   0.1 %
SCF Gradient evaluation          ...      291.415 sec (=   4.857 min)  33.7 %
Geometry relaxation              ...        0.074 sec (=   0.001 min)   0.0 %
                             ****ORCA TERMINATED NORMALLY****
TOTAL RUN TIME: 0 days 0 hours 14 minutes 30 seconds 327 msec
