
                                 *****************
                                 * O   R   C   A *
                                 *****************

                                            #,                                       
                                            ###                                      
                                            ####                                     
                                            #####                                    
                                            ######                                   
                                           ########,                                 
                                     ,,################,,,,,                         
                               ,,#################################,,                 
                          ,,##########################################,,             
                       ,#########################################, ''#####,          
                    ,#############################################,,   '####,        
                  ,##################################################,,,,####,       
                ,###########''''           ''''###############################       
              ,#####''   ,,,,##########,,,,          '''####'''          '####       
            ,##' ,,,,###########################,,,                        '##       
           ' ,,###''''                  '''############,,,                           
         ,,##''                                '''############,,,,        ,,,,,,###''
      ,#''                                            '''#######################'''  
     '                                                          ''''####''''         
             ,#######,   #######,   ,#######,      ##                                
            ,#'     '#,  ##    ##  ,#'     '#,    #''#        ,####,    ,#,          
            ##       ##  ##   ,#'  ##            #'  '#       #'       ,# #          
            ##       ##  #######   ##           ,######,      #####,      #          
            '#,     ,#'  ##    ##  '#,     ,#' ,#      #,     #,   #      #          
             '#######'   ##     ##  '#######'  #'      '#     '####' #    #          



                #########################################################
                #                        -***-                          #
                #          Department of theory and spectroscopy        #
                #                                                       #
                #                      Frank Neese                      #
                #                                                       #
                #     Directorship, Architecture, Infrastructure        #
                #                    SHARK, DRIVERS                     #
                #        Core code/Algorithms in most modules           #
                #                                                       #
                #        Max Planck Institute fuer Kohlenforschung      #
                #                Kaiser Wilhelm Platz 1                 #
                #                 D-45470 Muelheim/Ruhr                 #
                #                      Germany                          #
                #                                                       #
                #                  All rights reserved                  #
                #                        -***-                          #
                #########################################################


                         Program Version 6.1.1  -  RELEASE   -
                                (GIT: $487d211c$)
                          ($2025-11-21 10:33:24 +0100$)
                                                                         
                                  - NO-DMRG VERSION -                    
                                                                         


 With contributions from (in alphabetic order):
[Max-Planck-Institut fuer Kohlenforschung]                               
  Daniel Aravena         : Magnetic Suceptibility                        
  Michael Atanasov       : Ab Initio Ligand Field Theory (pilot matlab implementation)
  Alexander A. Auer      : GIAO ZORA, VPT2 properties, NMR spectrum      
  Ute Becker             : All parallelization in ORCA, NUMFREQ, NUMCALC 
  Giovanni Bistoni       : ED, misc. LED, open-shell LED, HFLD           
  Dmytro Bykov           : pre 5.0 version of the SCF Hessian            
  Marcos Casanova-Páez   : Triplet and SCS-CIS(D). UHF-(DLPNO)-IP/EA/STEOM-CCSD. UHF-CVS-IP/STEOM-CCSD   
  Vijay G. Chilkuri      : MRCI spin determinant printing, contributions to CSF-ICE 
  Pauline Colinet        : FMM embedding                                 
  Dipayan Datta          : RHF DLPNO-CCSD density                        
  Achintya Kumar Dutta   : EOM-CC, STEOM-CC                              
  Nicolas Foglia         : Exact transition moments, OPA infrastructure, MCD improvements    
  Dmitry Ganyushin       : Spin-Orbit,Spin-Spin,Magnetic field MRCI      
  Miquel Garcia-Rates    : C-PCM and meta-GGA Hessian, CCSD/C-PCM, Gaussian charge scheme 
  Tiago L. C. Gouveia    : GS-ROHF, GS-ROCIS                             
  Yang Guo               : DLPNO-NEVPT2, F12-NEVPT2, CIM, IAO-localization        
  Andreas Hansen         : Spin unrestricted coupled pair/coupled cluster methods 
  Ingolf Harden          : AUTO-CI MPn and infrastructure                
  Benjamin Helmich-Paris : MC-RPA, TRAH-(SCF,CASSCF), AVAS, COSX integrals, SCF dyn. polar., MC-PDFT, srDFT 
  Lee Huntington         : MR-EOM, pCC                                   
  Robert Izsak           : Overlap fitted RIJCOSX, COSX-SCS-MP3, EOM     
  Riya Kayal             : Wick's Theorem for AUTO-CI, AUTO-CI UHF-CCSDT 
  Emily Kempfer          : AUTO-CI RHF CISDT and CCSDT, approximate NEVPT4
  Christian Kollmar      : KDIIS, OOCD, Brueckner-CCSD(T), CCSD density, CASPT2, CASPT2-K, improved NEVPT2 
  Axel Koslowski         : Symmetry handling                             
  Simone Kossmann        : meta-GGA functionals, TD-DFT gradient, OOMP2, (MP2 Hessian; deprecated post 5.0) 
  Lucas Lang             : DCDCAS, Hyperfine gauge corrections, ICE-SOC+SSC
  Marvin Lechner         : AUTO-CI (C++ implementation), FIC-MRCC        
  Spencer Leger          : CASSCF response                               
  Dagmar Lenk            : GEPOL surface, SMD, ORCA-2-JSON               
  Dimitrios Liakos       : Extrapolation schemes; Compound Job, Property file
  Dimitrios Manganas     : Further ROCIS development; embedding schemes. LFT, Crystal Embedding 
  Dimitrios Pantazis     : SARC Basis sets                               
  Anastasios Papadopoulos: AUTO-CI, single reference methods and gradients 
  Taras Petrenko         : pre 6.0 DFT Hessian and TD-DFT gradient,  ECA, NRVS 
  Petra Pikulova         : Analytic Raman intensities                    
  Peter Pinski           : DLPNO-MP2, DLPNO-MP2 Gradient                 
  Shashank Vittal Rao    : ES-AILFT, MagRelax                            
  Christoph Reimann      : Effective Core Potentials                     
  Marius Retegan         : Local ZFS, SOC                                
  Christoph Riplinger    : Optimizer, TS searches, QM/MM, DLPNO-CCSD(T), (RO)-DLPNO pert. Triples 
  Michael Roemelt        : Original ROCIS implementation, recursive CI coupling coefficients
  Masaaki Saitow         : Open-shell DLPNO-CCSD energy and density      
  Barbara Sandhoefer     : DKH picture change effects                    
  Yorick L. A. Schmerwitz: GMF and freeze-and-release deltaSCF, NEB S-IDPP initial path                    
  Kantharuban Sivalingam : CASSCF convergence/infrastructure, NEVPT2, NEVPT3, NEVPT4(SD), FIC-MRCI and CEPA variants
  Bernardo de Souza      : ESD, SOC TD-DFT                               
  Georgi L. Stoychev     : AutoAux, RI-MP2 NMR, DLPNO-MP2 response, X2C  
  Van Anh Tran           : RI-MP2 g-tensors                              
  Willem Van den Heuvel  : Paramagnetic NMR                              
  Zikuan Wang            : NOTCH, Electric field optimization            
  Frank Wennmohs         : Technical directorship and infrastructure     
  Hang Xu                : AUTO-CI-Response properties                   
                                                                         
[FACCTs GmbH]                                                            
  Markus Bursch, Nicolas Foglia, Miquel Garcia-Rates, Ingolf Harden, Hagen Neugebauer, Anastasios Papadopoulos, 
  Christoph Riplinger, Bernardo de Souza, Georgi L. Stoychev                                                    
                                                                 
  APM, various basis sets, CI-OPT, improved COSX, DLPNO-Multilevel,           
  DOCKER, DRACO, updates on ESD, Fragmentator, GOAT, IRC, LR-CPCM, L-BFGS, MBIS, meta-GGA TD-DFT gradient, ML-optimized integration grids, 
  MM, NACMEs, nearIR, NEB, NEB-TS, NL-DFT gradient (VV10), 2- and 3-layer-ONIOM, interface openCOSMO-RS, QMMM,   
  Crystal-QMMM, RESP, rigid body optimization, SF, symmetry and pop. for TD-DFT, various functionals, SOLVATOR                                   
                                                                         
[Other institutions]                                                     
  V. Asgeirsson          : NEB                                           
  Christoph Bannwarth    : sTDA-DFT, sTD-DFT, PBEh-3c, B97-3c, D3        
  Giovanni Bistoni       : ETS/NOCV, ADLD/ADEX, COVALED                  
  Martin Brehm           : Molecular dynamics                            
  Ronald Cardenas        : ETS/NOCV                                      
  Martina Colucci        : COVALED                                       
  Sebastian Ehlert       : rSCAN, r2SCAN, r2SCAN-3c, D4, dhf basis sets  
  Marvin Friede          : D4 for Fr, Ra, Ac-Lr                          
  Lars Goerigk           : TD-DFT with DH, B97 family of functionals     
  Stefan Grimme          : VdW corrections, initial TS optimization, DFT functionals, gCP, sTDA/sTD-DF 
  Waldemar Hujo          : DFT-NL                                        
  H. Jonsson             : NEB                                           
  Holger Kruse           : gCP                                           
  Marcel Mueller         : wB97X-3c, vDZP basis set                      
  Hagen Neugebauer       : wr2SCAN, Native XTB                           
  Gianluca Regni         : ADLD/ADEX                                     
  Tobias Risthaus        : pre 6.0 range-separated hybrid DFT and stability analysis
  Lukas Wittmann         : regularized MP2, r2SCAN double-hybrids, wr2SCAN        
                                                                         
We gratefully acknowledge several colleagues who have allowed us to      
interface, adapt or use parts of their codes:                            
  Ed Valeev, F. Pavosevic, A. Kumar             : LibInt (2-el integral package), F12 methods 
  Garnet Chan, S. Sharma, J. Yang, R. Olivares  : DMRG                   
  Ulf Ekstrom                                   : XCFun DFT Library      
  Mihaly Kallay                                 : mrcc  (arbitrary order and MRCC methods)
  Frank Weinhold                                : gennbo (NPA and NBO analysis)           
  Simon Mueller                                 : openCOSMO-RS                            
  Christopher J. Cramer and Donald G. Truhlar   : smd solvation model                     
  S Lehtola, MJT Oliveira, MAL Marques          : LibXC Library                           
  Liviu Ungur et al                             : ANISO software                          


 Your calculation uses the libint2 library for the computation of 2-el integrals
 For citations please refer to: http://libint.valeyev.net

 Your ORCA version has been built with support for libXC version: 7.0.0
 For citations please refer to: https://libxc.gitlab.io

 This ORCA versions uses:
   CBLAS   interface :  Fast vector & matrix operations
   LAPACKE interface :  Fast linear algebra routines
   SCALAPACK package :  Parallel linear algebra routines
   Shared memory     :  Shared parallel matrices
   BLAS/LAPACK       :  OpenBLAS 0.3.29  USE64BITINT DYNAMIC_ARCH NO_AFFINITY SkylakeX SINGLE_THREADED
        Core in use  :  SkylakeX
   Copyright (c) 2011-2014, The OpenBLAS Project


  ***********************************
  * Starting time: Sun Mar 22 19:44:25 2026
  * Host name:     67ef585b9411
  * Process ID:    607
  * Working dir.:  /kaggle/working
  ***********************************

NOTE: MaxCore=3000 MB was set to SCF,MP2,MDCI,CIPSI,MRCI,RASCI and CIS
      => If you want to overwrite this, your respective input block should be placed after the MaxCore statement
Your calculation utilizes the atom-pairwise dispersion correction
with the Becke-Johnson damping scheme (D3BJ)


Warning: RI is on but no J-basis has been assigned. Assigning Def2/J (nothing to worry about!)
================================================================================

----- Orbital basis set information -----
Your calculation utilizes the basis: 6-31G(d,p)
   H-He, Li-Ne : W. J. Hehre, R. Ditchfield and J.A. Pople, J. Chem. Phys. 56, 2257 (1972).
                 Note: He and Ne are unpublished basis sets taken from the Gaussian program.
                 Note: Li and B from J. D. Dill and J. A. Pople, J. Chem. Phys. 62, 2921 (1975).
   Na - Ar     : M. M. Francl, W. J. Pietro, W. J. Hehre, J. S. Binkley, M. S. Gordon, 
                 D. J. DeFrees and J. A. Pople, J. Chem. Phys. 77, 3654 (1982).
   K - Zn      : V. A. Rassolov, J. A. Pople, M. A. Ratner, and T. L. Windus, J. Chem. Phys. 109, 1223 (1998).

----- AuxJ basis set information -----
Your calculation utilizes the auxiliary basis: def2/J
   H-Rn: F. Weigend, Phys. Chem. Chem. Phys. 8, 1057 (2006).
   Fr-Lr: K. Eichkorn, F. Weigend, O. Treutler, R. Ahlrichs; Theor. Chem. Acc. 97, 119 (1997).

================================================================================
                                        WARNINGS
                       Please study these warnings very carefully!
================================================================================


================================================================================
                                       INPUT FILE
================================================================================
NAME = /kaggle/working/Phe-2/Phe_InterFrag.inp
|  1> 
|  2> !RKS B3LYP 6-31G(d,p) TightSCF D3BJ
|  3> 
|  4> %pal nprocs 2 end
|  5> %maxcore 3000
|  6> 
|  7> %elprop
|  8>   Polar 1      # polarizability via CP-SCF
|  9> end
| 10> 
| 11> %output
| 12>   PrintLevel Normal
| 13>   Print[ P_OrbEn ] 2
| 14> end
| 15> 
| 16> *xyz 0 1
| 17>   O     -1.256199   -1.123906   -1.454261
| 18>   O     -2.544120   -1.278244    0.390240
| 19>   N     -3.005185    1.495111    0.062790
| 20>   C     -0.609672    1.154498    0.806733
| 21>   C     -1.709519    0.895607   -0.261979
| 22>   C      0.719196    0.526207    0.467267
| 23>   C      1.062668   -0.736774    0.969383
| 24>   C      1.606853    1.165251   -0.409624
| 25>   C     -1.901762   -0.601914   -0.397900
| 26>   C      2.266208   -1.345861    0.608213
| 27>   C      2.810796    0.559504   -0.772944
| 28>   C      3.144140   -0.699154   -0.264928
| 29>   H     -0.980214    0.772979    1.764553
| 30>   H     -0.508606    2.241507    0.894255
| 31>   H     -1.361696    1.287218   -1.220847
| 32>   H      0.378697   -1.244168    1.644974
| 33>   H      1.351293    2.144889   -0.805697
| 34>   H     -2.845078    2.480175    0.268354
| 35>   H     -3.320665    1.080387    0.939562
| 36>   H      2.518258   -2.323386    1.009436
| 37>   H      3.489487    1.069943   -1.450378
| 38>   H      4.081536   -1.170408   -0.545610
| 39>   H     -1.373217   -2.092263   -1.432991
| 40> 
| 41> *
| 42> 
| 43>                          ****END OF INPUT****
================================================================================

                       ****************************
                       * Single Point Calculation *
                       ****************************

---------------------------------
CARTESIAN COORDINATES (ANGSTROEM)
---------------------------------
  O     -1.256199   -1.123906   -1.454261
  O     -2.544120   -1.278244    0.390240
  N     -3.005185    1.495111    0.062790
  C     -0.609672    1.154498    0.806733
  C     -1.709519    0.895607   -0.261979
  C      0.719196    0.526207    0.467267
  C      1.062668   -0.736774    0.969383
  C      1.606853    1.165251   -0.409624
  C     -1.901762   -0.601914   -0.397900
  C      2.266208   -1.345861    0.608213
  C      2.810796    0.559504   -0.772944
  C      3.144140   -0.699154   -0.264928
  H     -0.980214    0.772979    1.764553
  H     -0.508606    2.241507    0.894255
  H     -1.361696    1.287218   -1.220847
  H      0.378697   -1.244168    1.644974
  H      1.351293    2.144889   -0.805697
  H     -2.845078    2.480175    0.268354
  H     -3.320665    1.080387    0.939562
  H      2.518258   -2.323386    1.009436
  H      3.489487    1.069943   -1.450378
  H      4.081536   -1.170408   -0.545610
  H     -1.373217   -2.092263   -1.432991

----------------------------
CARTESIAN COORDINATES (A.U.)
----------------------------
  NO LB      ZA    FRAG     MASS         X           Y           Z
   0 O     8.0000    0    15.999   -2.373872   -2.123875   -2.748155
   1 O     8.0000    0    15.999   -4.807690   -2.415531    0.737447
   2 N     7.0000    0    14.007   -5.678977    2.825350    0.118656
   3 C     6.0000    0    12.011   -1.152113    2.181685    1.524504
   4 C     6.0000    0    12.011   -3.230523    1.692452   -0.495069
   5 C     6.0000    0    12.011    1.359083    0.994387    0.883007
   6 C     6.0000    0    12.011    2.008151   -1.392301    1.831868
   7 C     6.0000    0    12.011    3.036512    2.202005   -0.774077
   8 C     6.0000    0    12.011   -3.593809   -1.137453   -0.751922
   9 C     6.0000    0    12.011    4.282512   -2.543309    1.149356
  10 C     6.0000    0    12.011    5.311635    1.057309   -1.460652
  11 C     6.0000    0    12.011    5.941564   -1.321210   -0.500641
  12 H     1.0000    0     1.008   -1.852336    1.460719    3.334522
  13 H     1.0000    0     1.008   -0.961126    4.235834    1.689897
  14 H     1.0000    0     1.008   -2.573233    2.432489   -2.307066
  15 H     1.0000    0     1.008    0.715634   -2.351137    3.108550
  16 H     1.0000    0     1.008    2.553574    4.053253   -1.522547
  17 H     1.0000    0     1.008   -5.376418    4.686852    0.507116
  18 H     1.0000    0     1.008   -6.275147    2.041636    1.775515
  19 H     1.0000    0     1.008    4.758818   -4.390563    1.907558
  20 H     1.0000    0     1.008    6.594175    2.021899   -2.740817
  21 H     1.0000    0     1.008    7.712985   -2.211751   -1.031053
  22 H     1.0000    0     1.008   -2.595004   -3.953804   -2.707961

--------------------------------
INTERNAL COORDINATES (ANGSTROEM)
--------------------------------
 O      0   0   0     0.000000000000     0.00000000     0.00000000
 O      1   0   0     2.254937839384     0.00000000     0.00000000
 N      2   1   0     2.830424419191    86.06312819     0.00000000
 C      3   2   1     2.531393082116    71.33742346   289.32996190
 C      3   2   1     1.464114180292    58.68774489   324.57502155
 C      4   3   2     1.508600976820   145.43534248    60.82518683
 C      6   4   3     1.401861083917   120.69294424   265.53135957
 C      6   4   3     1.401873749475   120.57459079    82.37215899
 C      2   1   3     1.221151394653    29.97046102   341.34159453
 C      7   6   4     1.396402260836   120.76397992   177.11155941
 C      8   6   4     1.395854432832   120.73900267   182.88657534
 C     10   7   6     1.396914366149   120.09333473   359.87202057
 H      4   3   2     1.095571665171    89.06770684   294.47573103
 H      4   3   2     1.095199983072    88.69720612   186.56903070
 H      5   3   2     1.092596840593   109.24616801   135.18353544
 H      7   6   4     1.087054828129   119.27238059   357.29655065
 H      8   6   4     1.087140904379   119.32842941     3.08486516
 H      3   2   1     1.018941555557   153.93866758   260.70618314
 H      3   2   1     1.019927824191    63.41741568   190.60279290
 H     10   7   6     1.086307610143   119.79866725   179.78319244
 H     11   8   6     1.086317757637   119.81966122   180.24915700
 H     12  10   7     1.086081939108   120.20516331   179.88709868
 H      1   2   3     0.975633591403    81.12543813   196.53763435

---------------------------
INTERNAL COORDINATES (A.U.)
---------------------------
 O      0   0   0     0.000000000000     0.00000000     0.00000000
 O      1   0   0     4.261214965452     0.00000000     0.00000000
 N      2   1   0     5.348726995033    86.06312819     0.00000000
 C      3   2   1     4.783639662503    71.33742346   289.32996190
 C      3   2   1     2.766774829543    58.68774489   324.57502155
 C      4   3   2     2.850842691555   145.43534248    60.82518683
 C      6   4   3     2.649133526405   120.69294424   265.53135957
 C      6   4   3     2.649157460840   120.57459079    82.37215899
 C      2   1   3     2.307641703951    29.97046102   341.34159453
 C      7   6   4     2.638817845769   120.76397992   177.11155941
 C      8   6   4     2.637782600873   120.73900267   182.88657534
 C     10   7   6     2.639785584562   120.09333473   359.87202057
 H      4   3   2     2.070330407257    89.06770684   294.47573103
 H      4   3   2     2.069628029881    88.69720612   186.56903070
 H      5   3   2     2.064708803509   109.24616801   135.18353544
 H      7   6   4     2.054235917720   119.27238059   357.29655065
 H      8   6   4     2.054398578259   119.32842941     3.08486516
 H      3   2   1     1.925520486475   153.93866758   260.70618314
 H      3   2   1     1.927384264088    63.41741568   190.60279290
 H     10   7   6     2.052823880364   119.79866725   179.78319244
 H     11   8   6     2.052843056350   119.81966122   180.24915700
 H     12  10   7     2.052397423912   120.20516331   179.88709868
 H      1   2   3     1.843680294805    81.12543813   196.53763435

---------------------
BASIS SET INFORMATION
---------------------
There are 4 groups of distinct atoms

 Group   1 Type O   : 10s4p1d contracted to 3s2p1d pattern {631/31/1}
 Group   2 Type N   : 10s4p1d contracted to 3s2p1d pattern {631/31/1}
 Group   3 Type C   : 10s4p1d contracted to 3s2p1d pattern {631/31/1}
 Group   4 Type H   : 4s1p contracted to 2s1p pattern {31/1}

Atom   0O    basis set group =>   1
Atom   1O    basis set group =>   1
Atom   2N    basis set group =>   2
Atom   3C    basis set group =>   3
Atom   4C    basis set group =>   3
Atom   5C    basis set group =>   3
Atom   6C    basis set group =>   3
Atom   7C    basis set group =>   3
Atom   8C    basis set group =>   3
Atom   9C    basis set group =>   3
Atom  10C    basis set group =>   3
Atom  11C    basis set group =>   3
Atom  12H    basis set group =>   4
Atom  13H    basis set group =>   4
Atom  14H    basis set group =>   4
Atom  15H    basis set group =>   4
Atom  16H    basis set group =>   4
Atom  17H    basis set group =>   4
Atom  18H    basis set group =>   4
Atom  19H    basis set group =>   4
Atom  20H    basis set group =>   4
Atom  21H    basis set group =>   4
Atom  22H    basis set group =>   4
---------------------------------
AUXILIARY/J BASIS SET INFORMATION
---------------------------------
There are 4 groups of distinct atoms

 Group   1 Type O   : 12s5p4d2f1g contracted to 6s4p3d1f1g pattern {711111/2111/211/2/1}
 Group   2 Type N   : 12s5p4d2f1g contracted to 6s4p3d1f1g pattern {711111/2111/211/2/1}
 Group   3 Type C   : 12s5p4d2f1g contracted to 6s4p3d1f1g pattern {711111/2111/211/2/1}
 Group   4 Type H   : 5s2p1d contracted to 3s1p1d pattern {311/2/1}

Atom   0O    basis set group =>   1
Atom   1O    basis set group =>   1
Atom   2N    basis set group =>   2
Atom   3C    basis set group =>   3
Atom   4C    basis set group =>   3
Atom   5C    basis set group =>   3
Atom   6C    basis set group =>   3
Atom   7C    basis set group =>   3
Atom   8C    basis set group =>   3
Atom   9C    basis set group =>   3
Atom  10C    basis set group =>   3
Atom  11C    basis set group =>   3
Atom  12H    basis set group =>   4
Atom  13H    basis set group =>   4
Atom  14H    basis set group =>   4
Atom  15H    basis set group =>   4
Atom  16H    basis set group =>   4
Atom  17H    basis set group =>   4
Atom  18H    basis set group =>   4
Atom  19H    basis set group =>   4
Atom  20H    basis set group =>   4
Atom  21H    basis set group =>   4
Atom  22H    basis set group =>   4


           ************************************************************
           *        Program running with 2 parallel MPI-processes     *
           *              working on a common directory               *
           ************************************************************
------------------------------------------------------------------------------
                             ORCA STARTUP CALCULATIONS
                           -- RI-GTO INTEGRALS CHOSEN --
------------------------------------------------------------------------------
------------------------------------------------------------------------------
                   ___                                                        
                  /   \      - P O W E R E D   B Y -                         
                 /     \                                                     
                 |  |  |   _    _      __       _____    __    __             
                 |  |  |  | |  | |    /  \     |  _  \  |  |  /  |          
                  \  \/   | |  | |   /    \    | | | |  |  | /  /          
                 / \  \   | |__| |  /  /\  \   | |_| |  |  |/  /          
                |  |  |   |  __  | /  /__\  \  |    /   |      \           
                |  |  |   | |  | | |   __   |  |    \   |  |\   \          
                \     /   | |  | | |  |  |  |  | |\  \  |  | \   \       
                 \___/    |_|  |_| |__|  |__|  |_| \__\ |__|  \__/        
                                                                              
                      - O R C A' S   B I G   F R I E N D -                    
                                      &                                       
                       - I N T E G R A L  F E E D E R -                       
                                                                              
 v1 FN, 2020, v2 2021, v3 2022-2024                                           
------------------------------------------------------------------------------


----------------------
SHARK INTEGRAL PACKAGE
----------------------

Number of atoms                             ...     23
Number of basis functions                   ...    223
Number of shells                            ...    105
Maximum angular momentum                    ...      2
Integral batch strategy                     ... SHARK/LIBINT Hybrid
RI-J (if used) integral strategy            ... SPLIT-RIJ (Revised 2003 algorithm where possible)
Printlevel                                  ...      1
Contraction scheme used                     ... SEGMENTED contraction
Prescreening option                         ... SCHWARTZ
   Thresh                                   ... 2.500e-11
   Tcut                                     ... 2.500e-12
   Tpresel                                  ... 2.500e-12 
Coulomb Range Separation                    ... NOT USED
Exchange Range Separation                   ... NOT USED
Multipole approximations                    ... NOT USED
Finite Nucleus Model                        ... NOT USED
CABS basis                                  ... NOT available
Auxiliary Coulomb fitting basis             ... AVAILABLE
   # of basis functions in Aux-J            ...    709
   # of shells in Aux-J                     ...    235
   Maximum angular momentum in Aux-J        ...      4
Auxiliary J/K fitting basis                 ... NOT available
Auxiliary Correlation fitting basis         ... NOT available
Auxiliary 'external' fitting basis          ... NOT available

Checking pre-screening integrals            ... done (  0.0 sec) Dimension = 105
   => SHARK Basis and OBASIS are compatible. Storing Pre-screening
Shell pair information
Shell pair cut-off parameter TPreSel        ...   2.5e-12
Total number of shell pairs                 ...      5565
Shell pairs after pre-screening             ...      4795
Total number of primitive shell pairs       ...     28015
Primitive shell pairs kept                  ...     15248
          la=0 lb=0:   1466 shell pairs
          la=1 lb=0:   1749 shell pairs
          la=1 lb=1:    550 shell pairs
          la=2 lb=0:    595 shell pairs
          la=2 lb=1:    366 shell pairs
          la=2 lb=2:     69 shell pairs

Checking whether 4 symmetric matrices of dimension 223 fit in memory
:Max Core in MB      =   3000.00
 MB in use           =      9.92
 MB left             =   2990.08
 MB needed           =      0.76
 Data fit in memory  = YES
Calculating RI/J V-Matrix + Cholesky decomp.... done (  0.0 sec)
Calculating Nuclear repulsion               ... done (  0.0 sec) ENN=    687.268345496517 Eh

Diagonalization of the overlap matrix:
Smallest eigenvalue                        ... 4.800e-04
Time for diagonalization                   ...    0.006 sec
Threshold for overlap eigenvalues          ... 1.000e-07
Number of eigenvalues below threshold      ... 0
Time for construction of square roots      ...    0.002 sec
Total time needed                          ...    0.010 sec

-------------------
DFT GRID GENERATION
-------------------

General Integration Accuracy     IntAcc      ... 4.388
Radial Grid Type                 RadialGrid  ... OptM3 with GC (2021)
Angular Grid (max. ang.)         AngularGrid ... 4 (Lebedev-302)
Angular grid pruning method      GridPruning ... 4 (adaptive)
Weight generation scheme         WeightScheme... mBecke (2022)
Basis function cutoff            BFCut       ... 1.0000e-11
Integration weight cutoff        WCut        ... 1.0000e-14
Partially contracted basis set               ... off
Rotationally invariant grid construction     ... off
Angular grids for H and He will be reduced by one unit

Total number of grid points                  ...   107308
Total number of batches                      ...     1688
Average number of points per batch           ...       63
Average number of grid points per atom       ...     4666

--------------------
COSX GRID GENERATION
--------------------

GRIDX 1
-------
General Integration Accuracy     IntAcc      ... 3.816
Radial Grid Type                 RadialGrid  ... OptM3 with GC (2021)
Angular Grid (max. ang.)         AngularGrid ... 1 (Lebedev-50)
Angular grid pruning method      GridPruning ... 4 (adaptive)
Weight generation scheme         WeightScheme... mBecke (2022)
Basis function cutoff            BFCut       ... 1.0000e-11
Integration weight cutoff        WCut        ... 1.0000e-14
Partially contracted basis set               ... on
Rotationally invariant grid construction     ... off
Angular grids for H and He will be reduced by one unit

Total number of grid points                  ...    13644
Total number of batches                      ...      120
Average number of points per batch           ...      113
Average number of grid points per atom       ...      593
UseSFitting                                  ... on

GRIDX 2
-------
General Integration Accuracy     IntAcc      ... 4.020
Radial Grid Type                 RadialGrid  ... OptM3 with GC (2021)
Angular Grid (max. ang.)         AngularGrid ... 2 (Lebedev-110)
Angular grid pruning method      GridPruning ... 4 (adaptive)
Weight generation scheme         WeightScheme... mBecke (2022)
Basis function cutoff            BFCut       ... 1.0000e-11
Integration weight cutoff        WCut        ... 1.0000e-14
Partially contracted basis set               ... on
Rotationally invariant grid construction     ... off
Angular grids for H and He will be reduced by one unit

Total number of grid points                  ...    29580
Total number of batches                      ...      244
Average number of points per batch           ...      121
Average number of grid points per atom       ...     1286
UseSFitting                                  ... on

GRIDX 3
-------
General Integration Accuracy     IntAcc      ... 4.338
Radial Grid Type                 RadialGrid  ... OptM3 with GC (2021)
Angular Grid (max. ang.)         AngularGrid ... 3 (Lebedev-194)
Angular grid pruning method      GridPruning ... 4 (adaptive)
Weight generation scheme         WeightScheme... mBecke (2022)
Basis function cutoff            BFCut       ... 1.0000e-11
Integration weight cutoff        WCut        ... 1.0000e-14
Partially contracted basis set               ... on
Rotationally invariant grid construction     ... off
Angular grids for H and He will be reduced by one unit

Total number of grid points                  ...    64857
Total number of batches                      ...      518
Average number of points per batch           ...      125
Average number of grid points per atom       ...     2820
UseSFitting                                  ... on
Grids setup in   2.4 sec
Initializing property integral containers    ... done (  0.0 sec)

SHARK setup successfully completed in   2.6 seconds

Maximum memory used throughout the entire STARTUP-calculation: 36.7 MB


           ************************************************************
           *        Program running with 2 parallel MPI-processes     *
           *              working on a common directory               *
           ************************************************************
-------------------------------------------------------------------------------
                                 ORCA GUESS
                   Start orbitals & Density for SCF / CASSCF
-------------------------------------------------------------------------------

------------
SCF SETTINGS
------------
Hamiltonian:
 Density Functional     Method          .... DFT(GTOs)
 Exchange Functional    Exchange        .... B88
   X-Alpha parameter    XAlpha          ....  0.666667
   Becke's b parameter  XBeta           ....  0.004200
 Correlation Functional Correlation     .... LYP
 LDA part of GGA corr.  LDAOpt          .... VWN-5
 Gradients option       PostSCFGGA      .... off
 Hybrid DFT is turned on
   Fraction HF Exchange ScalHFX         ....  0.200000
   Scaling of DF-GGA-X  ScalDFX         ....  0.720000
   Scaling of DF-GGA-C  ScalDFC         ....  0.810000
   Scaling of DF-LDA-C  ScalLDAC        ....  1.000000
   Perturbative correction              ....  0.000000
   NL short-range parameter             ....  4.800000
 RI-approximation to the Coulomb term is turned on
   Number of AuxJ basis functions       .... 709
   RIJ-COSX (HFX calculated with COS-X)).... on


General Settings:
 Integral files         IntName         .... /kaggle/working/Phe-2/Phe_InterFrag
 Hartree-Fock type      HFTyp           .... RHF
 Total Charge           Charge          ....    0
 Multiplicity           Mult            ....    1
 Number of Electrons    NEL             ....   88
 Basis Dimension        Dim             ....  223
 Nuclear Repulsion      ENuc            ....    687.2683454965 Eh

Convergence Acceleration:
 AO-DIIS                CNVDIIS         .... on
   Start iteration      DIISMaxIt       ....    12
   Startup error        DIISStart       ....  0.200000
   # of expansion vecs  DIISMaxEq       ....     5
   Bias factor          DIISBfac        ....   1.050
   Max. coefficient     DIISMaxC        ....  10.000
 MO-DIIS                CNVKDIIS        .... off
 Trust-Rad. Augm. Hess. CNVTRAH         .... auto
   Auto Start mean grad. ratio tolernc. ....  1.125000
   Auto Start start iteration           ....    50
   Auto Start num. interpolation iter.  ....    10
   Max. Number of Micro iterations      ....    24
   Max. Number of Macro iterations      .... Maxiter - #DIIS iter
   Number of Davidson start vectors     ....     2
   Converg. threshold    (grad. norm)   ....   1.000e-05
   Grad. Scal. Fac. for Micro threshold ....   0.100
   Minimum threshold for Micro iter.    ....   1.000e-02
   NR start threshold (gradient norm)   ....   1.000e-04
   Initial trust radius                 ....   0.400
   Minimum AH scaling param. (alpha)    ....   1.000
   Maximum AH scaling param. (alpha)    .... 1000.000
   Quad. conv. algorithm                .... NR
   White noise on init. David. guess    .... on
   Maximum white noise                  ....   0.010
   Pseudo random numbers                .... off
   Inactive MOs                         .... canonical
   Orbital update algorithm             .... Taylor
   Preconditioner                       .... Diag
   Full preconditioner red. dimension   ....   250
 SOSCF                 CNVSOSCF           .... on
   Start iteration     SOSCFMaxIt         ....   150
   Startup grad/error  SOSCFStart         ....  0.003300
   Hessian update      SOSCFHessUp        .... L-BFGS
   Autom. constraints  SOSCFAutoConstrain .... off
 Level Shifting         CNVShift        .... on
   Level shift para.    LevelShift      ....    0.2500
   Turn off err/grad.   ShiftErr        ....    0.0010
 Zerner damping         CNVZerner       .... off
 Static damping         CNVDamp         .... on
   Fraction old density DampFac         ....    0.7000
   Max. Damping (<1)    DampMax         ....    0.9800
   Min. Damping (>=0)   DampMin         ....    0.0000
   Turn off err/grad.   DampErr         ....    0.1000

SCF Procedure:
 Maximum # iterations   MaxIter         ....   125
 SCF integral mode      SCFMode         .... Direct
   Integral package                     .... SHARK and LIBINT hybrid scheme
 Reset frequency        DirectResetFreq ....    20
 Integral Threshold     Thresh          ....  2.500e-11 Eh
 Primitive CutOff       TCut            ....  2.500e-12 Eh

Convergence Tolerance:
 Convergence Check Mode ConvCheckMode   .... Total+1el-Energy
 Convergence forced     ConvForced      .... 0
 Energy Change          TolE            ....  1.000e-08 Eh
 1-El. energy change                    ....  1.000e-05 Eh
 Orbital Gradient       TolG            ....  1.000e-05
 Orbital Rotation angle TolX            ....  1.000e-05
 DIIS Error             TolErr          ....  5.000e-07

------------------------------
INITIAL GUESS: MODEL POTENTIAL
------------------------------
Loading Hartree-Fock densities                     ... done
Calculating cut-offs                               ... done
Initializing the effective Hamiltonian             ... done
Setting up the integral package (SHARK)            ... done
Starting the Coulomb interaction                   ... done (   0.2 sec)
Making the grid                                    ... done (   0.3 sec)
Mapping shells                                     ... done
Starting the XC term evaluation                    ... done (   0.2 sec)
  promolecular density results
     # of electrons  =     87.989348399
     EX              =    -72.504538759
     EC              =     -2.983107476
     EX+EC           =    -75.487646235
Transforming the Hamiltonian                       ... done (   0.0 sec)
Diagonalizing the Hamiltonian                      ... done (   0.0 sec)
Back transforming the eigenvectors                 ... done (   0.0 sec)
Now organizing SCF variables                       ... done
                      ------------------
                      INITIAL GUESS DONE (   0.7 sec)
                      ------------------
             **** ENERGY FILE WAS UPDATED (/kaggle/working/Phe-2/Phe_InterFrag.en.tmp) ****
Finished Guess after   1.1 sec
Maximum memory used throughout the entire GUESS-calculation: 14.4 MB


           ************************************************************
           *        Program running with 2 parallel MPI-processes     *
           *              working on a common directory               *
           ************************************************************

-------------------------------------------------------------------------------------------
                                      ORCA LEAN-SCF
                              memory conserving SCF solver
-------------------------------------------------------------------------------------------

----------------------------------------D-I-I-S--------------------------------------------
Iteration    Energy (Eh)           Delta-E    RMSDP     MaxDP     DIISErr   Damp  Time(sec)
-------------------------------------------------------------------------------------------
               ***  Starting incremental Fock matrix formation  ***
    1    -554.1013179005840357     0.00e+00  4.07e-03  9.25e-02  2.60e-01  0.700   6.3
    2    -554.2755720260117869    -1.74e-01  2.77e-03  5.11e-02  1.13e-01  0.700   3.2
                               ***Turning on AO-DIIS***
    3    -554.3428784717320923    -6.73e-02  1.11e-03  1.69e-02  3.97e-02  0.700   3.1
    4    -554.3836189813641795    -4.07e-02  1.72e-03  2.36e-02  1.85e-02  0.000   3.0
    5    -554.4730248009348088    -8.94e-02  4.04e-04  7.88e-03  6.91e-03  0.000   3.1
                              *** Initializing SOSCF ***
---------------------------------------S-O-S-C-F--------------------------------------
Iteration    Energy (Eh)           Delta-E    RMSDP     MaxDP     MaxGrad    Time(sec)
--------------------------------------------------------------------------------------
    6    -554.4735824760746254    -5.58e-04  1.28e-04  2.26e-03  2.19e-03     2.8
               *** Restarting incremental Fock matrix formation ***
    7    -554.4735836211850710    -1.15e-06  8.37e-05  1.49e-03  3.21e-04     6.2
    8    -554.4735821424333153     1.48e-06  3.32e-05  8.53e-04  6.58e-04     4.3
    9    -554.4735874531461377    -5.31e-06  2.27e-05  3.84e-04  1.75e-04     4.0
   10    -554.4735870835218066     3.70e-07  1.28e-05  2.13e-04  1.64e-04     3.8
   11    -554.4735878387964476    -7.55e-07  4.69e-06  7.53e-05  1.78e-05     3.6
   12    -554.4735878259918991     1.28e-08  2.81e-06  4.23e-05  3.02e-05     3.3
   13    -554.4735878507963207    -2.48e-08  8.84e-07  1.33e-05  5.49e-06     2.9
   14    -554.4735878416581727     9.14e-09  5.46e-07  9.19e-06  8.16e-06     2.5
                 **** Energy Check signals convergence ****

               *****************************************************
               *                     SUCCESS                       *
               *           SCF CONVERGED AFTER  14 CYCLES          *
               *****************************************************

Recomputing exchange energy using gridx3       ... done (   10.216 sec)
Old exchange energy                            :    -14.742707249 Eh
New exchange energy                            :    -14.742737258 Eh
Exchange energy change after final integration :     -0.000030009 Eh
Total energy after final integration           :   -554.473617856 Eh
             **** ENERGY FILE WAS UPDATED (/kaggle/working/Phe-2/Phe_InterFrag.en.tmp) ****

----------------
TOTAL SCF ENERGY
----------------

Total Energy       :       -554.47361785586463 Eh          -15087.99420 eV

Components:
Nuclear Repulsion  :        687.26834549651653 Eh           18701.52245 eV
Electronic Energy  :      -1241.74193334338543 Eh          -33789.51583 eV
One Electron Energy:      -2116.87717947573401 Eh          -57603.15654 eV
Two Electron Energy:        875.13524613234870 Eh           23813.64071 eV

Virial components:
Potential Energy   :      -1105.50791239014325 Eh          -30082.39966 eV
Kinetic Energy     :        551.03429453427873 Eh           14994.40546 eV
Virial Ratio       :          2.00624157762176

DFT components:
N(Alpha)           :       43.999917926509 electrons
N(Beta)            :       43.999917926509 electrons
N(Total)           :       87.999835853019 electrons
E(X)               :      -58.556197360506 Eh       
E(C)               :       -3.520557176342 Eh       
E(XC)              :      -62.076754536848 Eh       

---------------
SCF CONVERGENCE
---------------

  Last Energy change         ...   -9.1381e-09  Tolerance :   1.0000e-08
  Last MAX-Density change    ...    9.1948e-06  Tolerance :   1.0000e-07
  Last RMS-Density change    ...    5.4559e-07  Tolerance :   5.0000e-09
  Last DIIS Error            ...    2.1914e-03  Tolerance :   5.0000e-07
  Last Orbital Gradient      ...    8.1581e-06  Tolerance :   1.0000e-05
  Last Orbital Rotation      ...    1.1453e-05  Tolerance :   1.0000e-05


----------------
ORBITAL ENERGIES
----------------

  NO   OCC          E(Eh)            E(eV) 
   0   2.0000     -19.191314      -522.2222 
   1   2.0000     -19.131405      -520.5920 
   2   2.0000     -14.313926      -389.5017 
   3   2.0000     -10.311444      -280.5886 
   4   2.0000     -10.222894      -278.1791 
   5   2.0000     -10.190067      -277.2858 
   6   2.0000     -10.189869      -277.2804 
   7   2.0000     -10.183366      -277.1035 
   8   2.0000     -10.182999      -277.0935 
   9   2.0000     -10.181961      -277.0652 
  10   2.0000     -10.181863      -277.0626 
  11   2.0000     -10.180795      -277.0335 
  12   2.0000      -1.101817       -29.9820 
  13   2.0000      -1.007927       -27.4271 
  14   2.0000      -0.893775       -24.3209 
  15   2.0000      -0.851368       -23.1669 
  16   2.0000      -0.779449       -21.2099 
  17   2.0000      -0.740324       -20.1452 
  18   2.0000      -0.720037       -19.5932 
  19   2.0000      -0.669524       -18.2187 
  20   2.0000      -0.603136       -16.4122 
  21   2.0000      -0.593807       -16.1583 
  22   2.0000      -0.571299       -15.5458 
  23   2.0000      -0.524471       -14.2716 
  24   2.0000      -0.508177       -13.8282 
  25   2.0000      -0.475998       -12.9526 
  26   2.0000      -0.467724       -12.7274 
  27   2.0000      -0.456859       -12.4318 
  28   2.0000      -0.452796       -12.3212 
  29   2.0000      -0.432174       -11.7600 
  30   2.0000      -0.421113       -11.4591 
  31   2.0000      -0.415454       -11.3051 
  32   2.0000      -0.404982       -11.0201 
  33   2.0000      -0.394641       -10.7387 
  34   2.0000      -0.379229       -10.3193 
  35   2.0000      -0.363034        -9.8787 
  36   2.0000      -0.354594        -9.6490 
  37   2.0000      -0.340183        -9.2569 
  38   2.0000      -0.335825        -9.1383 
  39   2.0000      -0.311669        -8.4809 
  40   2.0000      -0.271816        -7.3965 
  41   2.0000      -0.254113        -6.9148 
  42   2.0000      -0.247211        -6.7270 
  43   2.0000      -0.230745        -6.2789 
  44   0.0000      -0.001689        -0.0459 
  45   0.0000      -0.000859        -0.0234 
  46   0.0000       0.013424         0.3653 
  47   0.0000       0.081558         2.2193 
  48   0.0000       0.083628         2.2756 
  49   0.0000       0.096734         2.6323 
  50   0.0000       0.121382         3.3030 
  51   0.0000       0.136539         3.7154 
  52   0.0000       0.147467         4.0128 
  53   0.0000       0.153973         4.1898 
  54   0.0000       0.168813         4.5936 
  55   0.0000       0.172392         4.6910 
  56   0.0000       0.189981         5.1696 
  57   0.0000       0.193071         5.2537 
  58   0.0000       0.199751         5.4355 
  59   0.0000       0.225262         6.1297 
  60   0.0000       0.240860         6.5541 
  61   0.0000       0.250083         6.8051 
  62   0.0000       0.267951         7.2913 
  63   0.0000       0.306605         8.3431 
  64   0.0000       0.323015         8.7897 
  65   0.0000       0.324206         8.8221 
  66   0.0000       0.337855         9.1935 
  67   0.0000       0.349610         9.5134 
  68   0.0000       0.375310        10.2127 
  69   0.0000       0.458838        12.4856 
  70   0.0000       0.500445        13.6178 
  71   0.0000       0.529141        14.3987 
  72   0.0000       0.533338        14.5129 
  73   0.0000       0.543232        14.7821 
  74   0.0000       0.549676        14.9574 
  75   0.0000       0.553171        15.0525 
  76   0.0000       0.576357        15.6835 
  77   0.0000       0.581692        15.8287 
  78   0.0000       0.599586        16.3156 
  79   0.0000       0.602114        16.3844 
  80   0.0000       0.606172        16.4948 
  81   0.0000       0.618607        16.8332 
  82   0.0000       0.623466        16.9654 
  83   0.0000       0.639984        17.4148 
  84   0.0000       0.645667        17.5695 
  85   0.0000       0.656916        17.8756 
  86   0.0000       0.664425        18.0799 
  87   0.0000       0.683781        18.6066 
  88   0.0000       0.709399        19.3037 
  89   0.0000       0.721725        19.6391 
  90   0.0000       0.749897        20.4057 
  91   0.0000       0.757649        20.6167 
  92   0.0000       0.776081        21.1182 
  93   0.0000       0.796234        21.6666 
  94   0.0000       0.799140        21.7457 
  95   0.0000       0.815322        22.1860 
  96   0.0000       0.820342        22.3226 
  97   0.0000       0.827146        22.5078 
  98   0.0000       0.837217        22.7818 
  99   0.0000       0.852827        23.2066 
 100   0.0000       0.867465        23.6049 
 101   0.0000       0.878897        23.9160 
 102   0.0000       0.885093        24.0846 
 103   0.0000       0.905768        24.6472 
 104   0.0000       0.909527        24.7495 
 105   0.0000       0.937241        25.5036 
 106   0.0000       0.941383        25.6163 
 107   0.0000       0.955203        25.9924 
 108   0.0000       0.967256        26.3204 
 109   0.0000       0.983355        26.7585 
 110   0.0000       0.999977        27.2108 
 111   0.0000       1.004933        27.3456 
 112   0.0000       1.025840        27.9145 
 113   0.0000       1.076220        29.2854 
 114   0.0000       1.084733        29.5171 
 115   0.0000       1.101391        29.9704 
 116   0.0000       1.110976        30.2312 
 117   0.0000       1.121480        30.5170 
 118   0.0000       1.149507        31.2797 
 119   0.0000       1.170862        31.8608 
 120   0.0000       1.206913        32.8418 
 121   0.0000       1.230134        33.4736 
 122   0.0000       1.275231        34.7008 
 123   0.0000       1.325931        36.0804 
 124   0.0000       1.366697        37.1897 
 125   0.0000       1.372709        37.3533 
 126   0.0000       1.401394        38.1339 
 127   0.0000       1.406411        38.2704 
 128   0.0000       1.409780        38.3621 
 129   0.0000       1.418739        38.6059 
 130   0.0000       1.428889        38.8821 
 131   0.0000       1.460112        39.7317 
 132   0.0000       1.471159        40.0323 
 133   0.0000       1.481127        40.3035 
 134   0.0000       1.513341        41.1801 
 135   0.0000       1.547960        42.1221 
 136   0.0000       1.595966        43.4284 
 137   0.0000       1.667240        45.3679 
 138   0.0000       1.708934        46.5025 
 139   0.0000       1.747881        47.5623 
 140   0.0000       1.757681        47.8289 
 141   0.0000       1.772262        48.2257 
 142   0.0000       1.779043        48.4102 
 143   0.0000       1.793205        48.7956 
 144   0.0000       1.812245        49.3137 
 145   0.0000       1.848991        50.3136 
 146   0.0000       1.859043        50.5871 
 147   0.0000       1.871919        50.9375 
 148   0.0000       1.894519        51.5525 
 149   0.0000       1.902634        51.7733 
 150   0.0000       1.914707        52.1018 
 151   0.0000       1.929521        52.5049 
 152   0.0000       1.952328        53.1255 
 153   0.0000       1.961414        53.3728 
 154   0.0000       1.973425        53.6996 
 155   0.0000       1.977499        53.8105 
 156   0.0000       1.999499        54.4091 
 157   0.0000       2.006130        54.5896 
 158   0.0000       2.021269        55.0015 
 159   0.0000       2.046745        55.6948 
 160   0.0000       2.078994        56.5723 
 161   0.0000       2.091176        56.9038 
 162   0.0000       2.104378        57.2630 
 163   0.0000       2.143336        58.3231 
 164   0.0000       2.176602        59.2284 
 165   0.0000       2.206288        60.0361 
 166   0.0000       2.257047        61.4174 
 167   0.0000       2.265982        61.6605 
 168   0.0000       2.272462        61.8368 
 169   0.0000       2.295237        62.4566 
 170   0.0000       2.308867        62.8275 
 171   0.0000       2.315280        63.0020 
 172   0.0000       2.323451        63.2243 
 173   0.0000       2.355409        64.0939 
 174   0.0000       2.369160        64.4681 
 175   0.0000       2.380773        64.7841 
 176   0.0000       2.388903        65.0054 
 177   0.0000       2.412836        65.6566 
 178   0.0000       2.417178        65.7748 
 179   0.0000       2.436174        66.2917 
 180   0.0000       2.448817        66.6357 
 181   0.0000       2.457950        66.8842 
 182   0.0000       2.480753        67.5047 
 183   0.0000       2.500885        68.0525 
 184   0.0000       2.503826        68.1326 
 185   0.0000       2.521427        68.6115 
 186   0.0000       2.543774        69.2196 
 187   0.0000       2.566183        69.8294 
 188   0.0000       2.587180        70.4008 
 189   0.0000       2.601940        70.8024 
 190   0.0000       2.617834        71.2349 
 191   0.0000       2.645194        71.9794 
 192   0.0000       2.654167        72.2236 
 193   0.0000       2.661758        72.4301 
 194   0.0000       2.712319        73.8060 
 195   0.0000       2.725902        74.1756 
 196   0.0000       2.750981        74.8580 
 197   0.0000       2.760599        75.1197 
 198   0.0000       2.779227        75.6266 
 199   0.0000       2.812493        76.5318 
 200   0.0000       2.819008        76.7091 
 201   0.0000       2.870155        78.1009 
 202   0.0000       2.891563        78.6834 
 203   0.0000       2.915891        79.3454 
 204   0.0000       2.923340        79.5481 
 205   0.0000       2.972799        80.8940 
 206   0.0000       3.049206        82.9731 
 207   0.0000       3.063335        83.3576 
 208   0.0000       3.084740        83.9400 
 209   0.0000       3.166718        86.1708 
 210   0.0000       3.204784        87.2066 
 211   0.0000       3.239749        88.1580 
 212   0.0000       3.250153        88.4411 
 213   0.0000       3.298928        89.7684 
 214   0.0000       3.329871        90.6104 
 215   0.0000       3.349923        91.1560 
 216   0.0000       3.362264        91.4919 
 217   0.0000       3.439982        93.6067 
 218   0.0000       3.449807        93.8740 
 219   0.0000       3.508595        95.4737 
 220   0.0000       3.521370        95.8214 
 221   0.0000       3.569970        97.1438 
 222   0.0000       3.922921       106.7481 

                    ********************************
                    * MULLIKEN POPULATION ANALYSIS *
                    ********************************

-----------------------
MULLIKEN ATOMIC CHARGES
-----------------------
   0 O :   -0.461415
   1 O :   -0.448617
   2 N :   -0.556408
   3 C :   -0.258452
   4 C :   -0.011423
   5 C :    0.116695
   6 C :   -0.124111
   7 C :   -0.114429
   8 C :    0.554664
   9 C :   -0.085382
  10 C :   -0.082066
  11 C :   -0.083957
  12 H :    0.110025
  13 H :    0.099477
  14 H :    0.121359
  15 H :    0.091381
  16 H :    0.075935
  17 H :    0.232517
  18 H :    0.247084
  19 H :    0.084754
  20 H :    0.084429
  21 H :    0.083770
  22 H :    0.324168
Sum of atomic charges:    0.0000000

--------------------------------
MULLIKEN REDUCED ORBITAL CHARGES
--------------------------------
  0 O s       :     3.825143  s :     3.825143
      pz      :     1.576065  p :     4.612670
      px      :     1.706384
      py      :     1.330221
      dz2     :     0.007417  d :     0.023602
      dxz     :     0.005558
      dyz     :     0.002855
      dx2y2   :     0.005879
      dxy     :     0.001893

  1 O s       :     3.860111  s :     3.860111
      pz      :     1.495391  p :     4.560830
      px      :     1.423015
      py      :     1.642424
      dz2     :     0.006521  d :     0.027676
      dxz     :     0.005255
      dyz     :     0.005984
      dx2y2   :     0.005053
      dxy     :     0.004862

  2 N s       :     3.608377  s :     3.608377
      pz      :     1.448305  p :     3.917433
      px      :     1.341294
      py      :     1.127834
      dz2     :     0.008957  d :     0.030598
      dxz     :     0.003388
      dyz     :     0.005080
      dx2y2   :     0.008430
      dxy     :     0.004743

  3 C s       :     3.237380  s :     3.237380
      pz      :     0.994834  p :     2.983441
      px      :     0.954841
      py      :     1.033766
      dz2     :     0.008381  d :     0.037631
      dxz     :     0.009162
      dyz     :     0.003980
      dx2y2   :     0.010525
      dxy     :     0.005583

  4 C s       :     3.184036  s :     3.184036
      pz      :     0.998335  p :     2.770211
      px      :     0.849514
      py      :     0.922362
      dz2     :     0.011323  d :     0.057176
      dxz     :     0.014076
      dyz     :     0.005902
      dx2y2   :     0.016418
      dxy     :     0.009458

  5 C s       :     3.137518  s :     3.137518
      pz      :     0.918285  p :     2.705120
      px      :     0.893984
      py      :     0.892851
      dz2     :     0.006467  d :     0.040667
      dxz     :     0.007007
      dyz     :     0.006636
      dx2y2   :     0.010404
      dxy     :     0.010153

  6 C s       :     3.180650  s :     3.180650
      pz      :     0.996358  p :     2.908882
      px      :     0.957361
      py      :     0.955163
      dz2     :     0.003468  d :     0.034579
      dxz     :     0.006670
      dyz     :     0.006462
      dx2y2   :     0.008742
      dxy     :     0.009239

  7 C s       :     3.178064  s :     3.178064
      pz      :     0.973426  p :     2.901790
      px      :     0.957978
      py      :     0.970386
      dz2     :     0.005121  d :     0.034575
      dxz     :     0.006597
      dyz     :     0.005409
      dx2y2   :     0.009294
      dxy     :     0.008154

  8 C s       :     2.978431  s :     2.978431
      pz      :     0.710862  p :     2.344234
      px      :     0.738003
      py      :     0.895369
      dz2     :     0.033253  d :     0.122671
      dxz     :     0.022976
      dyz     :     0.026166
      dx2y2   :     0.022537
      dxy     :     0.017739

  9 C s       :     3.174760  s :     3.174760
      pz      :     0.963646  p :     2.875810
      px      :     0.943858
      py      :     0.968306
      dz2     :     0.005181  d :     0.034811
      dxz     :     0.006537
      dyz     :     0.005552
      dx2y2   :     0.009367
      dxy     :     0.008174

 10 C s       :     3.173747  s :     3.173747
      pz      :     0.976803  p :     2.873498
      px      :     0.956217
      py      :     0.940477
      dz2     :     0.003512  d :     0.034822
      dxz     :     0.006632
      dyz     :     0.006581
      dx2y2   :     0.008756
      dxy     :     0.009340

 11 C s       :     3.171212  s :     3.171212
      pz      :     0.969139  p :     2.878121
      px      :     0.962802
      py      :     0.946181
      dz2     :     0.005680  d :     0.034624
      dxz     :     0.005042
      dyz     :     0.006360
      dx2y2   :     0.008288
      dxy     :     0.009254

 12 H s       :     0.878630  s :     0.878630
      pz      :     0.005908  p :     0.011345
      px      :     0.002655
      py      :     0.002782

 13 H s       :     0.889034  s :     0.889034
      pz      :     0.002417  p :     0.011489
      px      :     0.002238
      py      :     0.006833

 14 H s       :     0.867798  s :     0.867798
      pz      :     0.006177  p :     0.010843
      px      :     0.002239
      py      :     0.002427

 15 H s       :     0.896304  s :     0.896304
      pz      :     0.004639  p :     0.012315
      px      :     0.004377
      py      :     0.003299

 16 H s       :     0.911782  s :     0.911782
      pz      :     0.003207  p :     0.012283
      px      :     0.002404
      py      :     0.006673

 17 H s       :     0.743685  s :     0.743685
      pz      :     0.006374  p :     0.023798
      px      :     0.005615
      py      :     0.011809

 18 H s       :     0.729134  s :     0.729134
      pz      :     0.010756  p :     0.023782
      px      :     0.006782
      py      :     0.006244

 19 H s       :     0.902967  s :     0.902967
      pz      :     0.003186  p :     0.012278
      px      :     0.002399
      py      :     0.006693

 20 H s       :     0.903283  s :     0.903283
      pz      :     0.004634  p :     0.012288
      px      :     0.004322
      py      :     0.003332

 21 H s       :     0.903932  s :     0.903932
      pz      :     0.002809  p :     0.012299
      px      :     0.006345
      py      :     0.003145

 22 H s       :     0.638306  s :     0.638306
      pz      :     0.007304  p :     0.037525
      px      :     0.008386
      py      :     0.021836


------------------------
MULLIKEN OVERLAP CHARGES
------------------------
B(  0-O ,  1-O ) :  -0.1630 B(  0-O ,  4-C ) :  -0.1573 B(  0-O ,  8-C ) :   0.5911 
B(  0-O , 22-H ) :   0.5473 B(  1-O ,  4-C ) :  -0.1617 B(  1-O ,  8-C ) :   1.2184 
B(  2-N ,  3-C ) :  -0.1142 B(  2-N ,  4-C ) :   0.6635 B(  2-N ,  8-C ) :  -0.0768 
B(  2-N , 14-H ) :  -0.0764 B(  2-N , 17-H ) :   0.6829 B(  2-N , 18-H ) :   0.6742 
B(  3-C ,  4-C ) :   0.6742 B(  3-C ,  5-C ) :   0.6024 B(  3-C ,  6-C ) :  -0.1019 
B(  3-C ,  7-C ) :  -0.1180 B(  3-C ,  8-C ) :  -0.0587 B(  3-C , 12-H ) :   0.7177 
B(  3-C , 13-H ) :   0.7269 B(  3-C , 14-H ) :  -0.0938 B(  4-C ,  5-C ) :  -0.0699 
B(  4-C ,  8-C ) :   0.6013 B(  4-C , 12-H ) :  -0.0728 B(  4-C , 13-H ) :  -0.0790 
B(  4-C , 14-H ) :   0.7299 B(  4-C , 17-H ) :  -0.0907 B(  4-C , 18-H ) :  -0.0839 
B(  5-C ,  6-C ) :   1.0887 B(  5-C ,  7-C ) :   1.0933 B(  5-C , 11-C ) :  -0.0710 
B(  5-C , 15-H ) :  -0.0877 B(  5-C , 16-H ) :  -0.0942 B(  6-C ,  7-C ) :  -0.0766 
B(  6-C ,  9-C ) :   1.0412 B(  6-C , 10-C ) :  -0.0925 B(  6-C , 11-C ) :  -0.0726 
B(  6-C , 15-H ) :   0.7293 B(  6-C , 19-H ) :  -0.0743 B(  7-C ,  9-C ) :  -0.0917 
B(  7-C , 10-C ) :   1.0529 B(  7-C , 11-C ) :  -0.0720 B(  7-C , 16-H ) :   0.7292 
B(  7-C , 20-H ) :  -0.0754 B(  8-C , 14-H ) :  -0.0650 B(  9-C , 10-C ) :  -0.0534 
B(  9-C , 11-C ) :   1.1031 B(  9-C , 15-H ) :  -0.0819 B(  9-C , 19-H ) :   0.7292 
B(  9-C , 21-H ) :  -0.0832 B( 10-C , 11-C ) :   1.1006 B( 10-C , 16-H ) :  -0.0845 
B( 10-C , 20-H ) :   0.7298 B( 10-C , 21-H ) :  -0.0824 B( 11-C , 19-H ) :  -0.0833 
B( 11-C , 20-H ) :  -0.0830 B( 11-C , 21-H ) :   0.7357 B( 12-H , 13-H ) :  -0.0667 
B( 17-H , 18-H ) :  -0.0645 


                     *******************************
                     * LOEWDIN POPULATION ANALYSIS *
                     *******************************

----------------------
LOEWDIN ATOMIC CHARGES
----------------------
   0 O :   -0.140536
   1 O :   -0.246886
   2 N :   -0.252053
   3 C :   -0.123717
   4 C :   -0.036863
   5 C :   -0.017761
   6 C :   -0.078439
   7 C :   -0.075851
   8 C :    0.152763
   9 C :   -0.070022
  10 C :   -0.068101
  11 C :   -0.074321
  12 H :    0.075911
  13 H :    0.072060
  14 H :    0.079292
  15 H :    0.074595
  16 H :    0.069169
  17 H :    0.123451
  18 H :    0.129783
  19 H :    0.073212
  20 H :    0.073239
  21 H :    0.072820
  22 H :    0.188256

-------------------------------
LOEWDIN REDUCED ORBITAL CHARGES
-------------------------------
  0 O s       :     3.475084  s :     3.475084
      pz      :     1.586190  p :     4.615706
      px      :     1.688628
      py      :     1.340888
      dz2     :     0.013614  d :     0.049746
      dxz     :     0.011200
      dyz     :     0.008291
      dx2y2   :     0.012401
      dxy     :     0.004239

  1 O s       :     3.562292  s :     3.562292
      pz      :     1.527425  p :     4.629560
      px      :     1.441069
      py      :     1.661066
      dz2     :     0.010316  d :     0.055033
      dxz     :     0.012458
      dyz     :     0.013749
      dx2y2   :     0.007999
      dxy     :     0.010511

  2 N s       :     3.212837  s :     3.212837
      pz      :     1.447134  p :     3.980768
      px      :     1.374793
      py      :     1.158841
      dz2     :     0.014200  d :     0.058449
      dxz     :     0.007010
      dyz     :     0.008508
      dx2y2   :     0.017951
      dxy     :     0.010781

  3 C s       :     2.902128  s :     2.902128
      pz      :     1.052985  p :     3.139421
      px      :     1.019512
      py      :     1.066924
      dz2     :     0.017219  d :     0.082168
      dxz     :     0.021720
      dyz     :     0.007746
      dx2y2   :     0.023096
      dxy     :     0.012388

  4 C s       :     2.882840  s :     2.882840
      pz      :     1.056375  p :     3.027530
      px      :     0.964453
      py      :     1.006702
      dz2     :     0.023773  d :     0.126493
      dxz     :     0.032222
      dyz     :     0.012125
      dx2y2   :     0.037923
      dxy     :     0.020449

  5 C s       :     2.875470  s :     2.875470
      pz      :     0.995223  p :     3.041376
      px      :     1.007498
      py      :     1.038656
      dz2     :     0.014541  d :     0.100915
      dxz     :     0.016330
      dyz     :     0.017412
      dx2y2   :     0.026676
      dxy     :     0.025956

  6 C s       :     2.898329  s :     2.898329
      pz      :     1.014910  p :     3.096821
      px      :     1.043673
      py      :     1.038238
      dz2     :     0.007999  d :     0.083288
      dxz     :     0.014253
      dyz     :     0.014373
      dx2y2   :     0.022205
      dxy     :     0.024458

  7 C s       :     2.896979  s :     2.896979
      pz      :     1.012223  p :     3.095464
      px      :     1.044327
      py      :     1.038914
      dz2     :     0.011054  d :     0.083407
      dxz     :     0.017199
      dyz     :     0.011632
      dx2y2   :     0.022860
      dxy     :     0.020663

  8 C s       :     2.851709  s :     2.851709
      pz      :     0.875531  p :     2.708584
      px      :     0.823621
      py      :     1.009431
      dz2     :     0.076877  d :     0.286944
      dxz     :     0.058067
      dyz     :     0.059973
      dx2y2   :     0.051759
      dxy     :     0.040268

  9 C s       :     2.898246  s :     2.898246
      pz      :     1.006059  p :     3.087795
      px      :     1.044527
      py      :     1.037209
      dz2     :     0.011352  d :     0.083981
      dxz     :     0.017123
      dyz     :     0.012008
      dx2y2   :     0.022789
      dxy     :     0.020709

 10 C s       :     2.898083  s :     2.898083
      pz      :     1.002814  p :     3.086065
      px      :     1.040179
      py      :     1.043072
      dz2     :     0.008057  d :     0.083952
      dxz     :     0.014184
      dyz     :     0.014885
      dx2y2   :     0.022476
      dxy     :     0.024350

 11 C s       :     2.898127  s :     2.898127
      pz      :     1.011109  p :     3.092776
      px      :     1.037551
      py      :     1.044116
      dz2     :     0.012209  d :     0.083418
      dxz     :     0.011723
      dyz     :     0.016695
      dx2y2   :     0.020691
      dxy     :     0.022099

 12 H s       :     0.884805  s :     0.884805
      pz      :     0.021887  p :     0.039284
      px      :     0.008551
      py      :     0.008847

 13 H s       :     0.889070  s :     0.889070
      pz      :     0.007159  p :     0.038870
      px      :     0.006775
      py      :     0.024935

 14 H s       :     0.881017  s :     0.881017
      pz      :     0.022968  p :     0.039691
      px      :     0.007494
      py      :     0.009230

 15 H s       :     0.884923  s :     0.884923
      pz      :     0.015192  p :     0.040482
      px      :     0.014532
      py      :     0.010757

 16 H s       :     0.890875  s :     0.890875
      pz      :     0.009873  p :     0.039956
      px      :     0.007415
      py      :     0.022668

 17 H s       :     0.799310  s :     0.799310
      pz      :     0.018869  p :     0.077238
      px      :     0.016951
      py      :     0.041419

 18 H s       :     0.791705  s :     0.791705
      pz      :     0.040060  p :     0.078512
      px      :     0.020867
      py      :     0.017586

 19 H s       :     0.886982  s :     0.886982
      pz      :     0.009782  p :     0.039806
      px      :     0.007324
      py      :     0.022700

 20 H s       :     0.886990  s :     0.886990
      pz      :     0.014925  p :     0.039772
      px      :     0.014179
      py      :     0.010668

 21 H s       :     0.887294  s :     0.887294
      pz      :     0.008409  p :     0.039886
      px      :     0.021444
      py      :     0.010033

 22 H s       :     0.698325  s :     0.698325
      pz      :     0.021046  p :     0.113419
      px      :     0.024523
      py      :     0.067850


---------------------------------
LOEWDIN BOND ORDERS (THRESH 0.050000)
---------------------------------
B(  0-O ,  1-O ) :   0.2047 B(  0-O ,  4-C ) :   0.0635 B(  0-O ,  8-C ) :   1.4100 
B(  0-O , 22-H ) :   0.9833 B(  1-O ,  4-C ) :   0.0848 B(  1-O ,  8-C ) :   2.1980 
B(  2-N ,  3-C ) :   0.0705 B(  2-N ,  4-C ) :   1.1562 B(  2-N ,  8-C ) :   0.0551 
B(  2-N , 17-H ) :   0.9860 B(  2-N , 18-H ) :   0.9807 B(  3-C ,  4-C ) :   0.9883 
B(  3-C ,  5-C ) :   1.0393 B(  3-C ,  6-C ) :   0.0618 B(  3-C ,  7-C ) :   0.0604 
B(  3-C ,  8-C ) :   0.0546 B(  3-C , 12-H ) :   0.9255 B(  3-C , 13-H ) :   0.9224 
B(  4-C ,  8-C ) :   0.9815 B(  4-C , 14-H ) :   0.9050 B(  5-C ,  6-C ) :   1.4335 
B(  5-C ,  7-C ) :   1.4324 B(  5-C ,  9-C ) :   0.0730 B(  5-C , 10-C ) :   0.0732 
B(  5-C , 11-C ) :   0.1075 B(  6-C ,  7-C ) :   0.0699 B(  6-C ,  9-C ) :   1.4848 
B(  6-C , 10-C ) :   0.1118 B(  6-C , 11-C ) :   0.0720 B(  6-C , 15-H ) :   0.9213 
B(  7-C ,  9-C ) :   0.1126 B(  7-C , 10-C ) :   1.4890 B(  7-C , 11-C ) :   0.0718 
B(  7-C , 16-H ) :   0.9235 B(  8-C , 22-H ) :   0.0575 B(  9-C , 10-C ) :   0.0721 
B(  9-C , 11-C ) :   1.4828 B(  9-C , 19-H ) :   0.9254 B( 10-C , 11-C ) :   1.4789 
B( 10-C , 20-H ) :   0.9254 B( 11-C , 21-H ) :   0.9268 

------------------------------------------
LOEWDIN REDUCED ORBITAL POPULATIONS PER MO
-------------------------------------------
THRESHOLD FOR PRINTING IS 0.1%%
                      0         1         2         3         4         5   
                 -19.19131 -19.13141 -14.31393 -10.31144 -10.22289 -10.19007
                   2.00000   2.00000   2.00000   2.00000   2.00000   2.00000
                  --------  --------  --------  --------  --------  --------
 0 O  s              99.9       0.0       0.0       0.0       0.0       0.0
 0 O  pz              0.0       0.0       0.0       0.1       0.0       0.0
 1 O  s               0.0      99.8       0.0       0.1       0.0       0.0
 1 O  pz              0.0       0.0       0.0       0.2       0.0       0.0
 1 O  px              0.0       0.0       0.0       0.1       0.0       0.0
 1 O  py              0.0       0.0       0.0       0.1       0.0       0.0
 2 N  s               0.0       0.0      99.7       0.0       0.0       0.0
 2 N  px              0.0       0.0       0.0       0.0       0.1       0.0
 3 C  s               0.0       0.0       0.0       0.0       0.0      54.2
 4 C  s               0.0       0.0       0.0       0.0      99.4       0.0
 4 C  py              0.0       0.0       0.0       0.1       0.0       0.0
 5 C  s               0.0       0.0       0.0       0.0       0.0      45.1
 8 C  s               0.0       0.0       0.0      98.9       0.0       0.0
 8 C  py              0.0       0.0       0.0       0.0       0.2       0.0

                      6         7         8         9        10        11   
                 -10.18987 -10.18337 -10.18300 -10.18196 -10.18186 -10.18079
                   2.00000   2.00000   2.00000   2.00000   2.00000   2.00000
                  --------  --------  --------  --------  --------  --------
 3 C  s              45.3       0.0       0.0       0.0       0.0       0.0
 5 C  s              54.1       0.0       0.0       0.1       0.0       0.1
 5 C  py              0.0       0.0       0.0       0.0       0.0       0.2
 6 C  s               0.0       0.0       1.0       0.0       0.1      98.2
 6 C  px              0.0       0.0       0.2       0.0       0.0       0.0
 7 C  s               0.1       2.4       0.1      85.6      11.3       0.0
 7 C  px              0.0       0.1       0.0       0.0       0.0       0.0
 9 C  s               0.0       0.6      94.0       0.7       3.0       1.1
 9 C  px              0.0       0.0       0.0       0.0       0.1       0.1
10 C  s               0.0      93.9       1.1       0.9       3.6       0.0
10 C  px              0.0       0.0       0.0       0.2       0.0       0.0
10 C  py              0.0       0.0       0.0       0.1       0.1       0.0
11 C  s               0.0       2.6       3.3      12.1      81.4       0.0
11 C  py              0.0       0.1       0.1       0.0       0.0       0.0

                     12        13        14        15        16        17   
                  -1.10182  -1.00793  -0.89377  -0.85137  -0.77945  -0.74032
                   2.00000   2.00000   2.00000   2.00000   2.00000   2.00000
                  --------  --------  --------  --------  --------  --------
 0 O  s              41.3      18.8       0.0       0.0       0.1       0.0
 0 O  pz              2.0       0.2       0.0       0.0       0.1       0.0
 0 O  px              0.9       0.1       0.0       0.0       0.0       0.0
 0 O  py              0.1       0.2       0.2       0.0       0.4       0.0
 1 O  s              13.8      40.8       1.3       0.0       0.1       0.0
 1 O  pz              1.4       1.2       0.0       0.0       0.0       0.0
 1 O  px              0.9       0.9       0.0       0.0       0.0       0.0
 1 O  py              0.5       1.3       0.0       0.0       0.0       0.0
 2 N  s               0.1       0.2      37.1       1.9       5.6       0.0
 2 N  pz              0.0       0.0       0.4       0.0       0.3       0.0
 2 N  px              0.0       0.0       2.3       0.0       0.3       0.0
 2 N  py              0.0       0.0       0.1       0.0       0.2       0.0
 3 C  s               0.1       0.0       3.9       2.6      16.5       0.0
 3 C  pz              0.0       0.0       0.7       0.1       0.3       0.1
 3 C  px              0.0       0.0       0.8       1.6       0.5       0.0
 3 C  py              0.0       0.0       0.0       0.3       0.3       0.1
 4 C  s               1.0       0.3      16.9       0.0       2.7       0.0
 4 C  pz              0.0       0.1       0.9       0.0       0.3       0.0
 4 C  px              0.0       0.2       2.9       1.1       5.3       0.0
 4 C  py              1.6       0.2       1.1       0.1       0.4       0.0
 4 C  dxz             0.0       0.0       0.0       0.0       0.1       0.0
 4 C  dxy             0.0       0.0       0.1       0.0       0.1       0.0
 5 C  s               0.0       0.0       1.0      15.1       8.9       0.0
 5 C  pz              0.0       0.0       0.0       0.1       0.1       3.0
 5 C  px              0.0       0.0       0.2       0.9       3.2       0.5
 5 C  py              0.0       0.0       0.0       0.3       0.6       5.7
 6 C  s               0.0       0.0       0.3      12.1       0.1      14.6
 6 C  pz              0.0       0.0       0.0       0.9       0.0       0.0
 6 C  px              0.0       0.0       0.0       0.6       2.5       1.0
 6 C  py              0.0       0.0       0.1       0.8       2.1       1.1
 7 C  s               0.0       0.0       0.3      12.2       0.2      14.7
 7 C  pz              0.0       0.0       0.0       0.5       0.8       0.5
 7 C  px              0.0       0.0       0.0       0.0       3.6       1.6
 7 C  py              0.0       0.0       0.0       1.8       0.1       0.1
 8 C  s              19.6       3.9       0.4       0.0       0.5       0.0
 8 C  pz              0.9      15.7       0.0       0.0       0.0       0.0
 8 C  px              0.2       8.2       0.1       0.0       0.4       0.0
 8 C  py              4.0       1.0       4.6       0.0       1.1       0.0
 8 C  dz2             0.2       0.0       0.0       0.0       0.0       0.0
 8 C  dxz             0.9       0.1       0.0       0.0       0.0       0.0
 8 C  dyz             0.0       1.3       0.0       0.0       0.0       0.0
 8 C  dxy             0.0       0.7       0.0       0.0       0.0       0.0
 9 C  s               0.0       0.0       0.1      10.2       5.3      14.4
 9 C  pz              0.0       0.0       0.0       0.2       0.7       0.5
 9 C  px              0.0       0.0       0.0       0.2       1.0       1.7
 9 C  py              0.0       0.0       0.0       1.8       0.2       0.1
10 C  s               0.0       0.0       0.1      10.3       5.3      14.3
10 C  pz              0.0       0.0       0.0       0.8       0.2       0.0
10 C  px              0.0       0.0       0.0       1.0       0.3       1.1
10 C  py              0.0       0.0       0.0       0.4       1.5       1.2
11 C  s               0.0       0.0       0.1       9.7      11.0       0.0
11 C  pz              0.0       0.0       0.0       0.1       0.0       2.8
11 C  px              0.0       0.0       0.0       1.6       0.4       0.4
11 C  py              0.0       0.0       0.0       0.4       0.1       5.3
12 H  s               0.0       0.0       0.7       0.4       3.2       0.0
12 H  pz              0.0       0.0       0.0       0.0       0.2       0.0
13 H  s               0.0       0.0       0.7       0.4       3.2       0.0
13 H  py              0.0       0.0       0.0       0.0       0.2       0.0
14 H  s               0.2       0.0       2.5       0.0       0.7       0.0
14 H  pz              0.0       0.0       0.1       0.0       0.0       0.0
15 H  s               0.0       0.0       0.0       1.6       0.1       3.3
16 H  s               0.0       0.0       0.0       1.6       0.1       3.4
16 H  py              0.0       0.0       0.0       0.1       0.0       0.2
17 H  s               0.0       0.0       8.6       0.4       1.6       0.0
17 H  py              0.0       0.0       0.9       0.1       0.2       0.0
18 H  s               0.1       0.1       8.3       0.4       1.6       0.0
18 H  pz              0.0       0.0       0.6       0.0       0.1       0.0
18 H  px              0.0       0.0       0.2       0.0       0.0       0.0
18 H  py              0.0       0.0       0.2       0.0       0.0       0.0
19 H  s               0.0       0.0       0.0       1.3       0.9       3.2
19 H  py              0.0       0.0       0.0       0.0       0.0       0.1
20 H  s               0.0       0.0       0.0       1.3       0.9       3.2
21 H  s               0.0       0.0       0.0       1.2       1.9       0.0
22 H  s               8.2       3.3       0.0       0.0       0.2       0.0
22 H  py              1.5       0.7       0.0       0.0       0.0       0.0

                     18        19        20        21        22        23   
                  -0.72004  -0.66952  -0.60314  -0.59381  -0.57130  -0.52447
                   2.00000   2.00000   2.00000   2.00000   2.00000   2.00000
[...]
  8 C      5.4453     6.0000     0.5547     3.9572     3.9572     0.0000
  9 C      6.0854     6.0000    -0.0854     3.9484     3.9484    -0.0000
 10 C      6.0821     6.0000    -0.0821     3.9530     3.9530    -0.0000
 11 C      6.0840     6.0000    -0.0840     3.9539     3.9539    -0.0000
 12 H      0.8900     1.0000     0.1100     0.9608     0.9608    -0.0000
 13 H      0.9005     1.0000     0.0995     0.9576     0.9576    -0.0000
 14 H      0.8786     1.0000     0.1214     0.9522     0.9522     0.0000
 15 H      0.9086     1.0000     0.0914     0.9624     0.9624     0.0000
 16 H      0.9241     1.0000     0.0759     0.9601     0.9601     0.0000
 17 H      0.7675     1.0000     0.2325     0.9240     0.9240     0.0000
 18 H      0.7529     1.0000     0.2471     0.9289     0.9289    -0.0000
 19 H      0.9152     1.0000     0.0848     0.9577     0.9577     0.0000
 20 H      0.9156     1.0000     0.0844     0.9576     0.9576     0.0000
 21 H      0.9162     1.0000     0.0838     0.9577     0.9577    -0.0000
 22 H      0.6758     1.0000     0.3242     0.9121     0.9121     0.0000

  Mayer bond orders larger than 0.100000
B(  0-O ,  8-C ) :   1.0992 B(  0-O , 22-H ) :   0.8517 B(  1-O ,  8-C ) :   1.9046 
B(  2-N ,  4-C ) :   1.0264 B(  2-N , 17-H ) :   0.9112 B(  2-N , 18-H ) :   0.8962 
B(  3-C ,  4-C ) :   0.9540 B(  3-C ,  5-C ) :   0.9803 B(  3-C , 12-H ) :   0.9394 
B(  3-C , 13-H ) :   0.9415 B(  4-C ,  8-C ) :   0.9243 B(  4-C , 14-H ) :   0.9310 
B(  5-C ,  6-C ) :   1.4293 B(  5-C ,  7-C ) :   1.4275 B(  6-C ,  9-C ) :   1.4354 
B(  6-C , 15-H ) :   0.9359 B(  7-C , 10-C ) :   1.4419 B(  7-C , 16-H ) :   0.9398 
B(  9-C , 11-C ) :   1.4489 B(  9-C , 19-H ) :   0.9428 B( 10-C , 11-C ) :   1.4454 
B( 10-C , 20-H ) :   0.9426 B( 11-C , 21-H ) :   0.9439 

-------
TIMINGS
-------

Total SCF time: 0 days 0 hours 1 min 5 sec 

Total time                  ....      65.169 sec
Sum of individual times     ....      62.918 sec  ( 96.5%)

SCF preparation             ....       0.378 sec  (  0.6%)
Fock matrix formation       ....      61.895 sec  ( 95.0%)
  Startup                   ....       0.006 sec  (  0.0% of F)
  Split-RI-J                ....       5.911 sec  (  9.5% of F)
  Chain of spheres X        ....      48.278 sec  ( 78.0% of F)
  XC integration            ....       9.806 sec  ( 15.8% of F)
    XC Preparation          ....       0.000 sec  (  0.0% of XC)
    Basis function eval.    ....       3.774 sec  ( 38.5% of XC)
    Density eval.           ....       2.123 sec  ( 21.7% of XC)
    XC-Functional eval.     ....       0.542 sec  (  5.5% of XC)
    XC-Potential eval.      ....       2.712 sec  ( 27.7% of XC)
Diagonalization             ....       0.000 sec  (  0.0%)
Density matrix formation    ....       0.043 sec  (  0.1%)
Total Energy calculation    ....       0.021 sec  (  0.0%)
Population analysis         ....       0.265 sec  (  0.4%)
Orbital Transformation      ....       0.031 sec  (  0.0%)
Orbital Orthonormalization  ....       0.000 sec  (  0.0%)
DIIS solution               ....       0.148 sec  (  0.2%)
  MO trafo                  ....       0.000 sec  (  0.0 % of DIIS)
  Orb grad                  ....       0.000 sec  (  0.0 % of DIIS)
  Energy W gradient         ....       0.000 sec  (  0.0 % of DIIS)
  DIIS error                ....       0.032 sec  ( 21.7 % of DIIS)
  DIIS work                 ....       0.095 sec  ( 64.3 % of DIIS)
  Form Q                    ....       0.000 sec  (  0.0 % of DIIS)
  Form QpQm                 ....       0.000 sec  (  0.0 % of DIIS)
  Exp/Cayley                ....       0.000 sec  (  0.0 % of DIIS)
  Orb update                ....       0.000 sec  (  0.0 % of DIIS)
  Wake-sleep                ....       0.005 sec  (  3.5 % of DIIS)
SOSCF solution              ....       0.137 sec  (  0.2%)
  MO trafo                  ....       0.043 sec  ( 31.2 % of SOSCF)
  Orb grad                  ....       0.004 sec  (  3.0 % of SOSCF)
  Rot update                ....       0.018 sec  ( 13.0 % of SOSCF)
  Step                      ....       0.066 sec  ( 48.0 % of SOSCF)
Finished LeanSCF after  65.2 sec

Maximum memory used throughout the entire LEANSCF-calculation: 25.9 MB


-------------------------------------------------------------------------------
                          DFT DISPERSION CORRECTION                            
                                                                               
                              DFTD3 V3.1  Rev 1                                
                          USING Becke-Johnson damping                          
-------------------------------------------------------------------------------
The B3LYP functional is recognized
Active option DFTDOPT                   ...         4   

molecular C6(AA) [au] = 5416.418177 


            DFT-D V3
 parameters
 s6 scaling factor         :     1.0000 
 a1 scaling factor         :     0.3981 
 s8 scaling factor         :     1.9889 
 a2 scaling factor         :     4.4211 
 ad hoc parameters k1-k3   :    16.0000     1.3333    -4.0000 

 Edisp/kcal,au: -27.199369032650  -0.043344948970 
 E6   /kcal   : -12.920378409 
 E8   /kcal   : -14.278990623 
 % E8         :  52.497506858 

-------------------------   ----------------
Dispersion correction           -0.043344949
-------------------------   ----------------


-------------------------   --------------------
FINAL SINGLE POINT ENERGY      -554.516962804834
-------------------------   --------------------



           ************************************************************
           *        Program running with 2 parallel MPI-processes     *
           *              working on a common directory               *
           ************************************************************
------------------------------------------------------------------------------
                            ORCA SCF RESPONSE CALCULATION
------------------------------------------------------------------------------

GBWName                                 ... /kaggle/working/Phe-2/Phe_InterFrag.gbw
Number of atoms                         ...     23
Number of basis functions               ...    223
Max core memory                         ...   3000 MB

Electric field perturbation             ... YES
Quadrupolar field perturbation          ...  NO
Magnetic field perturbation (no GIAO)   ...  NO
Magnetic field perturbation (with GIAO) ...  NO
Linear momentum (velocity) perturbation ...  NO
Spin-orbit coupling perturbation        ...  NO
Choice of electric origin               ... Center of mass
Position of electric origin             ...    -0.145346    -0.025060    -0.070134
Choice of magnetic origin               ... GIAO
Position of magnetic origin             ...     0.000000     0.000000     0.000000
Nuclear geometric perturbations         ...  NO (  69 perturbations)
Nucleus-orbit perturbations             ...  NO (   0 perturbations)
Spin-dipole/Fermi contact perturbations ...  NO (   0 perturbations)

Total number of real perturbations      ...      3
Total number of imaginary perturbations ...      0
Total number of triplet perturbations   ...      0
Total number of SOC perturbations       ...      0

Using XC Grid                  ... (/kaggle/working/Phe-2/Phe_InterFrag.grid_cpscf.tmp) 
Recalculating density on grid  ... (/kaggle/working/Phe-2/Phe_InterFrag.grho_cpscf0.tmp) done
Calculating the xc-kernel      ... (/kaggle/working/Phe-2/Phe_InterFrag.fxc_cpscf0.tmp) done

                                **********************
                                * REAL PERTURBATIONS *
                                **********************



-------------------
SHARK CP-SCF DRIVER
-------------------

Dimension of the orbital basis          ...    223
Dimension of the CPSCF-problem          ...   7876
Number of operators                     ...      1
Max. number of iterations               ...    128
Convergence Tolerance                   ... 1.0e-04
Number of perturbations                 ...      3
Perturbation type                       ... REAL

----------------------------
POPLE LINEAR EQUATION SOLVER
----------------------------

  ITERATION   0:   ||err||_max =   1.7758e+01 (   2.5 sec   0/  3 done)
  ITERATION   1:   ||err||_max =   1.0585e+00 (   2.3 sec   0/  3 done)
  ITERATION   2:   ||err||_max =   4.0938e-01 (   2.3 sec   0/  3 done)
  ITERATION   3:   ||err||_max =   1.2419e-01 (   2.4 sec   0/  3 done)
  ITERATION   4:   ||err||_max =   4.3637e-02 (   2.4 sec   0/  3 done)
  ITERATION   5:   ||err||_max =   1.2602e-02 (   2.4 sec   0/  3 done)
  ITERATION   6:   ||err||_max =   3.9562e-03 (   2.4 sec   0/  3 done)
  ITERATION   7:   ||err||_max =   1.3016e-03 (   2.4 sec   0/  3 done)
  ITERATION   8:   ||err||_max =   4.5805e-04 (   2.4 sec   0/  3 done)
  ITERATION   9:   ||err||_max =   1.4944e-04 (   2.4 sec   2/  3 done)
  ITERATION  10:   ||err||_max =   4.0505e-05 (   1.9 sec   3/  3 done)

CP-SCF equations solved in  25.9 sec
Response densities calculated in   0.0 sec

Maximum memory used throughout the entire SCFRESP-calculation: 29.0 MB


           ************************************************************
           *        Program running with 2 parallel MPI-processes     *
           *              working on a common directory               *
           ************************************************************

------------------------------------------------------------------------------
                              ORCA PROPERTY CALCULATIONS
------------------------------------------------------------------------------

GBWName                                 ... /kaggle/working/Phe-2/Phe_InterFrag.gbw
Number of atoms                         ...     23
Number of basis functions               ...    223
Max core memory                         ...   3000 MB

Electric properties:
Dipole moment                           ... YES
Quadrupole moment                       ...  NO
Static polarizability (Dipole/Dipole)   ... YES
Static polarizability (Dipole/Quad.)    ...  NO
Static polarizability (Quad./Quad.)     ...  NO
Static polarizability (Velocity)        ...  NO
Static hyperpolarizability              ...  NO

Atomic electric properties:
Dipole moment                           ...  NO
Quadrupole moment                       ...  NO
Static polarizability                   ...  NO

Choice of electric origin               ... Center of mass
Position of electric origin             ...    -0.145346    -0.025060    -0.070134

General magnetic properties:
Magnetizability                         ...  NO

EPR properties:
g-Tensor (aka g-matrix)                 ...  NO
Zero-Field splitting spin-orbit         ...  NO
Zero-field splitting spin-spin          ...  NO
Hyperfine couplings                     ...  NO (   0 nuclei)
Quadrupole couplings                    ...  NO (   0 nuclei)
Contact density                         ...  NO (   0 nuclei)

NMR properties:
Chemical shifts                         ...  NO (   0 nuclei)
Spin-rotation constants                 ...  NO (   0 nuclei)
Spin-spin couplings                     ...  NO (   0 nuclei,    0 pairs)

Choice of magnetic origin               ... GIAO
Position of magnetic origin             ...     0.000000     0.000000     0.000000

Properties with geometric perturbations:
SCF Hessian                             ...  NO
IR spectrum                             ...  NO
VCD spectrum                            ...  NO
X-ray spectroscopy properties:
SCF XES/XAS/RIXS spectra                ...  NO

SCF SOC stabilization energy            ...  NO
Diagonal Born-Oppenheimer correction    ...  NO

-------------
DIPOLE MOMENT
-------------

Method             : SCF
Type of density    : Electron Density
Multiplicity       :   1
Irrep              :   0
Energy             :  -554.4736178558646316 Eh
Basis              : AO
                                X                 Y                 Z
Electronic contribution:     -1.328506586      -3.792919699      -1.358928799
Nuclear contribution   :      2.065090405       4.094344795       1.368648542
                        -----------------------------------------
Total Dipole Moment    :      0.736583819       0.301425096       0.009719743
                        -----------------------------------------
Magnitude (a.u.)       :      0.795931708
Magnitude (Debye)      :      2.023097624



--------------------
Rotational spectrum 
--------------------
 
Rotational constants in cm-1:             0.059121             0.020588             0.018245 
Rotational constants in MHz :          1772.403794           617.200972           546.975574 

Dipole components along the rotational axes: 
x,y,z [a.u.] :     0.709054     0.361452    -0.010141 
x,y,z [Debye]:     1.802271     0.918738    -0.025777 

 

Dipole moment calculation done in   0.0 sec 


---------------------------------------------------
STATIC POLARIZABILITY TENSOR (Dipole/Dipole)
---------------------------------------------------

Method             : SCF
Type of density    : Electron Density
Type of derivative : Electric Field (Direction=X)
Multiplicity       :   1
Irrep              :   0
Basis              : AO

The raw cartesian tensor (atomic units):
     120.298953138       -14.661010556       -21.281568793  
     -14.661010556       103.833850845       -11.748119167  
     -21.281568793       -11.748119167        75.981318247  
diagonalized tensor: 
      60.974707449       106.793556949       132.345857831  

Orientation: 
       0.393031788         0.199983027        -0.897514792  
       0.365705484         0.861552908         0.352116580  
       0.843673819        -0.466619090         0.265482790  

Isotropic polarizability : 100.03804


Polarizability tensor calculation done in   0.0 sec 

Maximum memory used throughout the entire PROP-calculation: 13.5 MB

--------------------------------
SUGGESTED CITATIONS FOR THIS RUN
--------------------------------

Below you find a list of papers that are relevant to this ORCA run
We neither can nor want to force you to cite these papers, but we appreciate if you do
You receive ORCA, which is the product of decades of hard work by many enthusiastic individuals, for free
The only thing we kindly ask in return is that you cite our papers,
We deeply appreciate it, if you show your appreciation for ORCA by not just citing the generic ORCA reference.

Please note that relegating all ORCA citations to the supporting information does *not* help us.
SI sections are not indexed - citations you put there will not count into any citation statistics
But we need these citations in order to attract the funding resources that allow us to do what we are doing

Therefore, if you are a happy ORCA user, please consider citing a few of the papers listed below in the main body of your paper

In addition to the list printed below, the program has created the file /kaggle/working/Phe-2/Phe_InterFrag.bibtex that contains the list in bibtex format
You can import this file easily into all common literature databanks and citation aid programs

It goes without saying that in many instances, there are alternative algorithms to achieve similar
results as the ones you have gotten from ORCA. It is, of course, also the case that in some instances
ORCA just re-implements algorithms worked out by others. We are fully aware of that and we are also
fully appreciative of our colleagues work. Hence this citation list should not be read as indicating
that the listed papers, which are focused on our own work, are the only ones worth citing. It simply
meant to make it easier for users to cite ORCA specific papers. It is not a substitute for doing your
own literature research and citing the relevant literature in a scientifically appropriate manner.

List of essential papers. We consider these as the minimum necessary citations

  1. Neese, F.
     Software update: the ORCA program system, version 6.0
     WIRES Comput. Molec. Sci. 2025 15(1), e70019
     doi.org/10.1002/wcms.70019

List of papers to cite with high priority. The work reported in these papers was absolutely
necessary for this run to complete.
Our perspective: the developers of density functionals and basis sets usually get cited in chemistry papers
Good! But without the algorithms to do something with them, the functionals or basis sets would not do anything.
Hence, in our opinion, the algorithm design and method developments papers are equally worthy of getting cited

  1. Neese, F.
     An improvement of the resolution of the identity approximation for the formation of the Coulomb matrix
     J. Comp. Chem. 2003 24(14), 1740-1747
     doi.org/10.1002/jcc.10318
  2. Neese, F.; Wennmohs, F.; Hansen, A.; Becker, U.
     Efficient, approximate and parallel Hartree-Fock and hybrid DFT calculations. A 'chain-of-spheres' algorithm for the Hartree-Fock exchange
     Chem. Phys. 2009 356(1-3), 98-109
     doi.org/10.1016/j.chemphys.2008.10.036
  3. Grimme, S.; Antony, J.; Ehrlich, S.; Krieg, H.
     A consistent and accurate ab initio parametrization of density functional dispersion correction (DFT-D) for the 94 elements H-Pu
     J. Chem. Phys. 2010 132 , 154104
     doi.org/10.1063/1.3382344
  4. Grimme, S.; Ehrlich, S.; Goerigk, L.
     Effect of the damping function in dispersion corrected density functional theory
     J. Comput. Chem. 2011 32(7), 1456-1465
     doi.org/10.1002/jcc.21759
  5. Helmich-Paris, B.; de Souza, B.; Neese, F.; Izsák, R.
     An improved chain of spheres for exchange algorithm
     J. Chem. Phys. 2021 155(10), 104109
     doi.org/10.1063/5.0058766
  6. Neese, F.
     The SHARK Integral Generation and Digestion System
     J. Comp. Chem. 2022 44(3), 381
     doi.org/10.1002/jcc.26942

List of suggested additional citations. These are papers that are important in the 'surrounding' of 
of this run, or papers that preceded the highly important papers. If you like your results we are grateful for a citation.

  1. Izsak, R.; Neese, F.
     An overlap fitted chain of spheres exchange method
     J. Chem. Phys. 2011 135 , 144105
     doi.org/10.1063/1.3646921
  2. Izsak, R.; Hansen, A.; Neese, F.
     The resolution of identity and chain of spheres approximations for the LPNO-CCSD singles Fock term
     Molec. Phys. 2012 110 , 2413-2417
     doi.org/10.1080/00268976.2012.687466
  3. Neese, F.
     The ORCA program system
     WIRES Comput. Molec. Sci. 2012 2(1), 73-78
     doi.org/10.1002/wcms.81
  4. Izsak, R.; Neese, F.; Klopper, W.
     Robust fitting techniques in the chain of spheres approximation to the Fock exchange: The role of the complementary space
     J. Chem. Phys. 2013 139 , 
     doi.org/10.1063/1.4819264
  5. Neese, F.
     Software update: the ORCA program system, version 4.0
     WIRES Comput. Molec. Sci. 2018 8(1), 1-6
     doi.org/10.1002/wcms.1327
  6. Neese, F.; Wennmohs, F.; Becker, U.; Riplinger, C.
     The ORCA quantum chemistry program package
     J. Chem. Phys. 2020 152(22), 224108
     doi.org/10.1063/5.0004608
  7. Neese, F.
     Software update: The ORCA program system—Version 5.0
     WIRES Comput. Molec. Sci. 2022 12(1), e1606
     doi.org/10.1002/wcms.1606

List of optional additional citations

  1. Neese, F.
     Approximate second-order SCF convergence for spin unrestricted wavefunctions
     Chem. Phys. Lett. 2000 325(1-3), 93-98
     doi.org/10.1016/s0009-2614(00)00662-x

Timings for individual modules:

Sum of individual times          ...       96.459 sec (=   1.608 min)
Startup calculation              ...        2.952 sec (=   0.049 min)   3.1 %
SCF iterations                   ...       66.484 sec (=   1.108 min)  68.9 %
SCF Response                     ...       26.588 sec (=   0.443 min)  27.6 %
Property calculations            ...        0.435 sec (=   0.007 min)   0.5 %
                             ****ORCA TERMINATED NORMALLY****
TOTAL RUN TIME: 0 days 0 hours 1 minutes 36 seconds 962 msec
