[Molden Format]
[Title]
 Molden file created by orca_2mkl for BaseName=/home/friday_code/Desktop/DP-Regenrate-Results/calculations/GlcNAc/GlcNAc-2/GlcNAc_InterFrag

[Atoms] AU
O    1   8          2.8884520649        -2.1843363279         0.6166270861 
O    2   8         -1.7756206905         4.0964462679        -0.0931786162 
O    3   8          3.5383610077         4.5788725629        -0.9113109795 
O    4   8         -0.4696574155        -4.8938521149         0.6104325639 
O    5   8          8.1370152238        -2.1140063904        -0.0235403185 
O    6   8         -6.0371968972         0.4565408264         2.3908248129 
N    7   7         -3.7798264336        -0.9174223538        -1.0116384296 
C    8   6         -0.1811321397         2.0383115204        -0.7631999143 
C    9   6         -1.3124544843        -0.4991976144         0.1068129903 
C   10   6          2.5093049723         2.3692705966         0.2397212087 
C   11   6          4.0843935946         0.0210307621        -0.4116163670 
C   12   6          0.4843065725        -2.6874154398        -0.4892368680 
C   13   6          6.7346759159         0.0696458567         0.6928586384 
C   14   6         -5.9656650938        -0.3234058408         0.1769312785 
C   15   6         -8.3474607952        -0.6911484362        -1.3539831058 
H   16   1         -0.0925568963         2.0569650070        -2.8345343988 
H   17   1         -1.5614277921        -0.4500760733         2.1579916559 
H   18   1          2.4329146830         2.5791133454         2.3054129711 
H   19   1          4.2098147181        -0.1535723737        -2.4806472755 
H   20   1          0.7194338570        -2.9043711178        -2.5465420257 
H   21   1          6.6054186484         0.2363820626         2.7613131803 
H   22   1          7.7547141782         1.7142423857        -0.0296195674 
H   23   1         -3.8458534647        -1.3916925908        -2.8637401162 
H   24   1         -2.0788064617         3.9943235779         1.7111262273 
H   25   1          4.9244600091         5.1614335560         0.1283256326 
H   26   1          0.4320102915        -6.3124676339        -0.1145155140 
H   27   1          7.1057538779        -3.5516760180         0.4509207809 
H   28   1         -9.6665085339        -1.8551252484        -0.2695826611 
H   29   1         -9.2382795845         1.1526762499        -1.6475445018 
H   30   1         -8.0037385087        -1.5730874024        -3.1880775920 
[GTO]
  1 0
s   6 1.0 
     5484.6717000000         0.8317352088
      825.2349500000         1.5308074829
      188.0469600000         2.4771490916
       52.9645000000         3.2562802462
       16.8975700000         2.7928936336
        5.7996353000         0.9549376963
s   3 1.0 
       15.5396160000        -0.6179336976
        3.5999336000        -0.2757210088
        1.0137618000         0.8142076427
p   3 1.0 
       15.5396160000         3.1169455889
        3.5999336000         2.4014372483
        1.0137618000         1.0543605133
s   1 1.0 
        0.2700058000         0.2669561389
p   1 1.0 
        0.2700058000         0.2774319373
d   1 1.0 
        0.8000000000         1.9292013661

  2 0
s   6 1.0 
     5484.6717000000         0.8317352088
      825.2349500000         1.5308074829
      188.0469600000         2.4771490916
       52.9645000000         3.2562802462
       16.8975700000         2.7928936336
        5.7996353000         0.9549376963
s   3 1.0 
       15.5396160000        -0.6179336976
        3.5999336000        -0.2757210088
        1.0137618000         0.8142076427
p   3 1.0 
       15.5396160000         3.1169455889
        3.5999336000         2.4014372483
        1.0137618000         1.0543605133
s   1 1.0 
        0.2700058000         0.2669561389
p   1 1.0 
        0.2700058000         0.2774319373
d   1 1.0 
        0.8000000000         1.9292013661

  3 0
s   6 1.0 
     5484.6717000000         0.8317352088
      825.2349500000         1.5308074829
      188.0469600000         2.4771490916
       52.9645000000         3.2562802462
       16.8975700000         2.7928936336
        5.7996353000         0.9549376963
s   3 1.0 
       15.5396160000        -0.6179336976
        3.5999336000        -0.2757210088
        1.0137618000         0.8142076427
p   3 1.0 
       15.5396160000         3.1169455889
        3.5999336000         2.4014372483
        1.0137618000         1.0543605133
s   1 1.0 
        0.2700058000         0.2669561389
p   1 1.0 
        0.2700058000         0.2774319373
d   1 1.0 
        0.8000000000         1.9292013661

  4 0
s   6 1.0 
     5484.6717000000         0.8317352088
      825.2349500000         1.5308074829
      188.0469600000         2.4771490916
       52.9645000000         3.2562802462
       16.8975700000         2.7928936336
        5.7996353000         0.9549376963
s   3 1.0 
       15.5396160000        -0.6179336976
        3.5999336000        -0.2757210088
        1.0137618000         0.8142076427
p   3 1.0 
       15.5396160000         3.1169455889
        3.5999336000         2.4014372483
        1.0137618000         1.0543605133
s   1 1.0 
        0.2700058000         0.2669561389
p   1 1.0 
        0.2700058000         0.2774319373
d   1 1.0 
        0.8000000000         1.9292013661

  5 0
s   6 1.0 
     5484.6717000000         0.8317352088
      825.2349500000         1.5308074829
      188.0469600000         2.4771490916
       52.9645000000         3.2562802462
       16.8975700000         2.7928936336
        5.7996353000         0.9549376963
s   3 1.0 
       15.5396160000        -0.6179336976
        3.5999336000        -0.2757210088
        1.0137618000         0.8142076427
p   3 1.0 
       15.5396160000         3.1169455889
        3.5999336000         2.4014372483
        1.0137618000         1.0543605133
s   1 1.0 
        0.2700058000         0.2669561389
p   1 1.0 
        0.2700058000         0.2774319373
d   1 1.0 
        0.8000000000         1.9292013661

  6 0
s   6 1.0 
     5484.6717000000         0.8317352088
      825.2349500000         1.5308074829
      188.0469600000         2.4771490916
       52.9645000000         3.2562802462
       16.8975700000         2.7928936336
        5.7996353000         0.9549376963
s   3 1.0 
       15.5396160000        -0.6179336976
        3.5999336000        -0.2757210088
        1.0137618000         0.8142076427
p   3 1.0 
       15.5396160000         3.1169455889
        3.5999336000         2.4014372483
        1.0137618000         1.0543605133
s   1 1.0 
        0.2700058000         0.2669561389
p   1 1.0 
        0.2700058000         0.2774319373
d   1 1.0 
        0.8000000000         1.9292013661

  7 0
s   6 1.0 
     4173.5110000000         0.6790079572
      627.4579000000         1.2504643275
      142.9021000000         2.0203691378
       40.2343300000         2.6442129843
       12.8202100000         2.2650039968
        4.3904370000         0.7791872309
s   3 1.0 
       11.6263580000        -0.5158738103
        2.7162800000        -0.2550239186
        0.7722180000         0.6727344163
p   3 1.0 
       11.6263580000         2.0680595460
        2.7162800000         1.6100106206
        0.7722180000         0.7644899877
s   1 1.0 
        0.2120313000         0.2226947990
p   1 1.0 
        0.2120313000         0.2050879094
d   1 1.0 
        0.8000000000         1.9292013661

  8 0
s   6 1.0 
     3047.5249000000         0.5363343823
      457.3695100000         0.9894506076
      103.9486900000         1.5972822308
       29.2101550000         2.0791870615
        9.2866630000         1.7741742532
        3.1639270000         0.6125798260
s   3 1.0 
        7.8682724000        -0.3995563516
        1.8812885000        -0.1841552393
        0.5442493000         0.5163903794
p   3 1.0 
        7.8682724000         1.2960827175
        1.8812885000         0.9937536282
        0.5442493000         0.4959527138
s   1 1.0 
        0.1687144000         0.1876178721
p   1 1.0 
        0.1687144000         0.1541275509
d   1 1.0 
        0.8000000000         1.9292013661

  9 0
s   6 1.0 
     3047.5249000000         0.5363343823
      457.3695100000         0.9894506076
      103.9486900000         1.5972822308
       29.2101550000         2.0791870615
        9.2866630000         1.7741742532
        3.1639270000         0.6125798260
s   3 1.0 
        7.8682724000        -0.3995563516
        1.8812885000        -0.1841552393
        0.5442493000         0.5163903794
p   3 1.0 
        7.8682724000         1.2960827175
        1.8812885000         0.9937536282
        0.5442493000         0.4959527138
s   1 1.0 
        0.1687144000         0.1876178721
p   1 1.0 
        0.1687144000         0.1541275509
d   1 1.0 
        0.8000000000         1.9292013661

 10 0
s   6 1.0 
     3047.5249000000         0.5363343823
      457.3695100000         0.9894506076
      103.9486900000         1.5972822308
       29.2101550000         2.0791870615
        9.2866630000         1.7741742532
        3.1639270000         0.6125798260
s   3 1.0 
        7.8682724000        -0.3995563516
        1.8812885000        -0.1841552393
        0.5442493000         0.5163903794
p   3 1.0 
        7.8682724000         1.2960827175
        1.8812885000         0.9937536282
        0.5442493000         0.4959527138
s   1 1.0 
        0.1687144000         0.1876178721
p   1 1.0 
        0.1687144000         0.1541275509
d   1 1.0 
        0.8000000000         1.9292013661

 11 0
s   6 1.0 
     3047.5249000000         0.5363343823
      457.3695100000         0.9894506076
      103.9486900000         1.5972822308
       29.2101550000         2.0791870615
        9.2866630000         1.7741742532
        3.1639270000         0.6125798260
s   3 1.0 
        7.8682724000        -0.3995563516
        1.8812885000        -0.1841552393
        0.5442493000         0.5163903794
p   3 1.0 
        7.8682724000         1.2960827175
        1.8812885000         0.9937536282
        0.5442493000         0.4959527138
s   1 1.0 
        0.1687144000         0.1876178721
p   1 1.0 
        0.1687144000         0.1541275509
d   1 1.0 
        0.8000000000         1.9292013661

 12 0
s   6 1.0 
     3047.5249000000         0.5363343823
      457.3695100000         0.9894506076
      103.9486900000         1.5972822308
       29.2101550000         2.0791870615
        9.2866630000         1.7741742532
        3.1639270000         0.6125798260
s   3 1.0 
        7.8682724000        -0.3995563516
        1.8812885000        -0.1841552393
        0.5442493000         0.5163903794
p   3 1.0 
        7.8682724000         1.2960827175
        1.8812885000         0.9937536282
        0.5442493000         0.4959527138
s   1 1.0 
        0.1687144000         0.1876178721
p   1 1.0 
        0.1687144000         0.1541275509
d   1 1.0 
        0.8000000000         1.9292013661

 13 0
s   6 1.0 
     3047.5249000000         0.5363343823
      457.3695100000         0.9894506076
      103.9486900000         1.5972822308
       29.2101550000         2.0791870615
        9.2866630000         1.7741742532
        3.1639270000         0.6125798260
s   3 1.0 
        7.8682724000        -0.3995563516
        1.8812885000        -0.1841552393
        0.5442493000         0.5163903794
p   3 1.0 
        7.8682724000         1.2960827175
        1.8812885000         0.9937536282
        0.5442493000         0.4959527138
s   1 1.0 
        0.1687144000         0.1876178721
p   1 1.0 
        0.1687144000         0.1541275509
d   1 1.0 
        0.8000000000         1.9292013661

 14 0
s   6 1.0 
     3047.5249000000         0.5363343823
      457.3695100000         0.9894506076
      103.9486900000         1.5972822308
       29.2101550000         2.0791870615
        9.2866630000         1.7741742532
        3.1639270000         0.6125798260
s   3 1.0 
        7.8682724000        -0.3995563516
        1.8812885000        -0.1841552393
        0.5442493000         0.5163903794
p   3 1.0 
        7.8682724000         1.2960827175
        1.8812885000         0.9937536282
        0.5442493000         0.4959527138
s   1 1.0 
        0.1687144000         0.1876178721
p   1 1.0 
        0.1687144000         0.1541275509
d   1 1.0 
        0.8000000000         1.9292013661

 15 0
s   6 1.0 
     3047.5249000000         0.5363343823
      457.3695100000         0.9894506076
      103.9486900000         1.5972822308
       29.2101550000         2.0791870615
        9.2866630000         1.7741742532
        3.1639270000         0.6125798260
s   3 1.0 
        7.8682724000        -0.3995563516
        1.8812885000        -0.1841552393
        0.5442493000         0.5163903794
p   3 1.0 
        7.8682724000         1.2960827175
        1.8812885000         0.9937536282
        0.5442493000         0.4959527138
s   1 1.0 
        0.1687144000         0.1876178721
p   1 1.0 
        0.1687144000         0.1541275509
d   1 1.0 
        0.8000000000         1.9292013661

 16 0
s   3 1.0 
       18.7311370000         0.2149354183
        2.8253937000         0.3645711272
        0.6401217000         0.4150514277
s   1 1.0 
        0.1612778000         0.1813806839
p   1 1.0 
        1.1000000000         1.6057611426

 17 0
s   3 1.0 
       18.7311370000         0.2149354183
        2.8253937000         0.3645711272
        0.6401217000         0.4150514277
s   1 1.0 
        0.1612778000         0.1813806839
p   1 1.0 
        1.1000000000         1.6057611426

 18 0
s   3 1.0 
       18.7311370000         0.2149354183
        2.8253937000         0.3645711272
        0.6401217000         0.4150514277
s   1 1.0 
        0.1612778000         0.1813806839
p   1 1.0 
        1.1000000000         1.6057611426

 19 0
s   3 1.0 
       18.7311370000         0.2149354183
        2.8253937000         0.3645711272
        0.6401217000         0.4150514277
s   1 1.0 
        0.1612778000         0.1813806839
p   1 1.0 
        1.1000000000         1.6057611426

 20 0
s   3 1.0 
       18.7311370000         0.2149354183
        2.8253937000         0.3645711272
        0.6401217000         0.4150514277
s   1 1.0 
        0.1612778000         0.1813806839
p   1 1.0 
        1.1000000000         1.6057611426

 21 0
s   3 1.0 
       18.7311370000         0.2149354183
        2.8253937000         0.3645711272
        0.6401217000         0.4150514277
s   1 1.0 
        0.1612778000         0.1813806839
p   1 1.0 
        1.1000000000         1.6057611426

 22 0
s   3 1.0 
       18.7311370000         0.2149354183
        2.8253937000         0.3645711272
        0.6401217000         0.4150514277
s   1 1.0 
        0.1612778000         0.1813806839
p   1 1.0 
        1.1000000000         1.6057611426

 23 0
s   3 1.0 
       18.7311370000         0.2149354183
        2.8253937000         0.3645711272
        0.6401217000         0.4150514277
s   1 1.0 
        0.1612778000         0.1813806839
p   1 1.0 
        1.1000000000         1.6057611426

 24 0
s   3 1.0 
       18.7311370000         0.2149354183
        2.8253937000         0.3645711272
        0.6401217000         0.4150514277
s   1 1.0 
        0.1612778000         0.1813806839
p   1 1.0 
        1.1000000000         1.6057611426

 25 0
s   3 1.0 
       18.7311370000         0.2149354183
        2.8253937000         0.3645711272
        0.6401217000         0.4150514277
s   1 1.0 
        0.1612778000         0.1813806839
p   1 1.0 
        1.1000000000         1.6057611426

 26 0
s   3 1.0 
       18.7311370000         0.2149354183
        2.8253937000         0.3645711272
        0.6401217000         0.4150514277
s   1 1.0 
        0.1612778000         0.1813806839
p   1 1.0 
        1.1000000000         1.6057611426

 27 0
s   3 1.0 
       18.7311370000         0.2149354183
        2.8253937000         0.3645711272
        0.6401217000         0.4150514277
s   1 1.0 
        0.1612778000         0.1813806839
p   1 1.0 
        1.1000000000         1.6057611426

 28 0
s   3 1.0 
       18.7311370000         0.2149354183
        2.8253937000         0.3645711272
        0.6401217000         0.4150514277
s   1 1.0 
        0.1612778000         0.1813806839
p   1 1.0 
        1.1000000000         1.6057611426

 29 0
s   3 1.0 
       18.7311370000         0.2149354183
        2.8253937000         0.3645711272
        0.6401217000         0.4150514277
s   1 1.0 
        0.1612778000         0.1813806839
p   1 1.0 
        1.1000000000         1.6057611426

 30 0
s   3 1.0 
       18.7311370000         0.2149354183
        2.8253937000         0.3645711272
        0.6401217000         0.4150514277
s   1 1.0 
        0.1612778000         0.1813806839
p   1 1.0 
        1.1000000000         1.6057611426

[5D]
[7F]
[9G]
[MO]
 Sym=     1a
 Ene= -1.91652837741991E+01
 Spin= Alpha
 Occup= 2.000000
  1      -0.994785886436
  2      -0.031125146294
  3       0.000773735735
  4      -0.001008567292
  5       0.001260185934
  6       0.025529165386
  7      -0.003169801690
  8       0.003349515299
  9      -0.004102624461
 10      -0.000367244619
 11       0.000271603186
 12      -0.000343499903
 13       0.000191454918
 14       0.000558722479
 15      -0.000321128847
 16      -0.000211912158
 17      -0.000007240079
 18       0.000027096346
 19       0.000019338773
 20       0.000870719755
 21       0.000137590511
 22      -0.000279812645
 23      -0.000059604430
 24      -0.000021845139
 25       0.000010508607
 26      -0.000016869963
 27      -0.000012318911
 28       0.000001725448
 29       0.000810876756
 30       0.000262048214
 31       0.000041635722
 32      -0.000117555438
 33      -0.000002287935
 34      -0.000383285098
 35      -0.000229978260
 36       0.000510755971
 37      -0.000119781918
 38       0.000021950491
 39      -0.000012922271
 40       0.000056034935
 41       0.000053857472
 42       0.000004969457
 43      -0.029821419262
 44      -0.001358381960
 45      -0.000063012279
 46      -0.000001367049
 47      -0.000048641761
 48       0.003406296633
 49       0.001315593609
 50       0.001634362707
 51       0.000072106704
 52      -0.000132682445
 53      -0.000119771070
 54       0.000007435283
 55      -0.000157204215
 56       0.000270466107
 57      -0.000307373010
 58      -0.000220001084
 59       0.000016791582
 60      -0.000039647723
 61       0.000073411595
 62       0.000506412097
 63      -0.000212966362
 64       0.000079193656
 65      -0.000300865388
 66      -0.000116152715
 67       0.000055664129
 68      -0.000034958027
 69       0.000052604411
 70       0.000008819237
 71       0.000052794206
 72       0.000066107209
 73       0.000006112328
 74      -0.000020020345
 75       0.000002562728
 76      -0.000222822225
 77       0.000044625870
 78       0.000057883790
 79      -0.000013816123
 80       0.000022068730
 81      -0.000009621067
 82       0.000002495038
 83      -0.000013248027
 84       0.000010301399
 85       0.000019810979
 86       0.000235464072
 87       0.000161505458
 88      -0.000090910080
 89       0.000042795825
 90      -0.000613040905
 91      -0.001946872391
 92       0.000596223055
 93      -0.000487268250
 94      -0.000031821545
 95      -0.000138386330
 96       0.000014537422
 97      -0.000074032522
 98       0.000010229170
 99      -0.000099214527
100      -0.000791714631
101      -0.000016490121
102       0.000030034968
103       0.000167047076
104       0.003361523899
105       0.001418245217
106      -0.001557219479
107      -0.000775525143
108      -0.000013389735
109       0.000034923293
110      -0.000068696274
111       0.000006666298
112      -0.000046997399
113      -0.000023475853
114       0.000215599116
115       0.000245801680
116      -0.000230186551
117      -0.000060222502
118       0.002535206116
119      -0.000690262203
120      -0.001859693355
121       0.000385362978
122      -0.000123940295
123       0.000120670349
124      -0.000012359611
125       0.000101120039
126      -0.000190512344
127       0.000019083007
128       0.000544636158
129       0.000166276324
130      -0.000288758523
131      -0.000095799840
132      -0.000148078147
133       0.000787776659
134      -0.000174170773
135       0.001041406006
136      -0.000065922373
137      -0.000004001348
138      -0.000063106204
139      -0.000175201630
140      -0.000071072958
141       0.000166187918
142       0.001111581906
143       0.000436042781
144       0.000695596249
145      -0.000042792102
146      -0.009741125954
147       0.002432353493
148       0.003966357045
149      -0.002729665542
150       0.000129903987
151       0.000082747552
152      -0.000036451690
153      -0.000016327388
154      -0.000283781570
155       0.000201902623
156       0.001125303848
157      -0.000789245460
158      -0.000028704771
159      -0.000207045306
160      -0.012782156996
161      -0.003702441410
162      -0.000597049038
163      -0.003910199930
164       0.000151565047
165       0.000043340255
166       0.000072449652
167      -0.000062534295
168      -0.000271644765
169      -0.000020643134
170       0.000078157039
171      -0.000307100822
172      -0.000035057698
173      -0.000142502986
174       0.001484297951
175      -0.001012952049
176      -0.000733469488
177       0.000959872451
178      -0.000037431864
179       0.000000996226
180       0.000080419126
181       0.000176901676
182       0.000094301330
183       0.000000345177
184      -0.000029572139
185      -0.000042514101
186      -0.000005260465
187       0.000073601922
188      -0.000784643554
189      -0.000598133823
190       0.000140392562
191       0.000506490557
192      -0.000048120739
193       0.000074681289
194      -0.000022253140
195      -0.000018839970
196      -0.000000484480
197       0.000013391025
198       0.000125811663
199       0.000014596814
200       0.000018223581
201       0.000003053256
202      -0.000313366009
203      -0.000068175961
204      -0.000126352468
205      -0.000079301398
206      -0.000011670867
207      -0.000009110078
208      -0.000017047584
209      -0.000014884841
210       0.000009523622
211      -0.000368030478
212      -0.000740721679
213      -0.000078885084
214       0.000115196679
215      -0.000044387994
216      -0.000117791679
217       0.000055838773
218       0.000214603687
219      -0.000028099587
220      -0.000046416433
221      -0.000064709176
222      -0.000085276988
223      -0.000011055048
224      -0.000142415670
225      -0.000027897123
226       0.000483111336
227       0.000461832196
228      -0.000191293635
229      -0.000296841843
230       0.000161666106
231       0.000501720343
232       0.000499870461
233       0.000300338590
234       0.000060663347
235       0.000196316241
236      -0.000173738027
237      -0.000390076406
238      -0.000101377358
239       0.000010452327
240      -0.000006104855
241       0.000113541423
242       0.000114014341
243       0.000097618615
244      -0.000024020271
245      -0.000001511872
246       0.000117114475
247      -0.000465524977
248       0.000085425950
249      -0.000042067655
250      -0.000018319352
251      -0.000041021483
252       0.000133970278
253       0.000004993800
254      -0.000004112824
255       0.000007626260
256       0.000148361827
257      -0.000269206437
258       0.000035289961
259      -0.000017062927
260      -0.000015087002
261      -0.000059473916
262       0.000496568249
263       0.000016821248
264       0.000107600200
265      -0.000013946928
266       0.000024700397
267      -0.000279776729
268      -0.000034650605
269      -0.000072550440
270       0.000036214680
271       0.000007520967
272      -0.000037950113
273      -0.000010106584
274      -0.000000599869
275       0.000006352356
276       0.000020693853
277       0.000106629805
278       0.000012894397
279       0.000000729126
280       0.000002591018
281       0.000008350928
282       0.000039505808
283       0.000007984128
284       0.000009957164
285       0.000006524897
 Sym=     1a
 Ene= -1.91650535676641E+01
 Spin= Alpha
 Occup= 2.000000
  1       0.029731586707
  2       0.000460333999
  3      -0.000051382914
  4       0.000001586660
  5      -0.000094473989
  6       0.002717324061
  7      -0.001429944179
  8      -0.000643768044
  9       0.000237322101
 10      -0.000080591910
 11      -0.000127283438
 12       0.000089732368
 13       0.000071239379
 14       0.000095966327
 15      -0.000016100391
 16      -0.000010879979
 17       0.000008999524
 18       0.000042051043
 19      -0.000051979889
 20      -0.000225670975
 21      -0.000043902504
 22      -0.000139103004
 23       0.000522004050
 24       0.000022068664
 25       0.000011794634
 26      -0.000069626006
 27      -0.000039769123
 28      -0.000017887556
 29       0.000941246682
 30       0.000404797215
 31      -0.000034211956
 32      -0.000042442650
 33      -0.000036548549
 34      -0.001822458182
 35       0.000492675952
 36       0.000943480344
 37       0.000008254978
 38       0.000092084859
 39       0.000002406752
 40       0.000021789293
 41       0.000076340596
 42      -0.000082652066
 43      -0.994671791396
 44      -0.030287023322
 45      -0.001530486853
 46      -0.000074205910
 47       0.001445457998
 48       0.021331948438
 49       0.002923568403
 50       0.006352490723
 51      -0.002946699606
 52      -0.000024469943
 53      -0.000022595131
 54      -0.000931456333
 55      -0.000211051942
 56       0.001050345626
 57       0.000043624010
 58       0.000027243012
 59      -0.000003354068
 60      -0.000008819803
 61       0.000004397877
 62      -0.000000883212
 63       0.000045490017
 64       0.000181083368
 65      -0.000033378489
 66       0.000005595539
 67      -0.000006767737
 68       0.000004074393
 69      -0.000026110074
 70      -0.000025999187
 71      -0.000041487005
 72      -0.000055730082
 73      -0.000004847592
 74      -0.000002323997
 75       0.000005390434
 76       0.000144530642
 77      -0.000037671215
 78       0.000011224507
 79      -0.000006118068
 80      -0.000013014747
 81       0.000003661530
 82       0.000000585760
 83       0.000021507036
 84       0.000008564407
 85      -0.000043156318
 86      -0.000358618043
 87      -0.000120709339
 88       0.000020035132
 89       0.000065651917
 90       0.001914918632
 91       0.002288252252
 92      -0.000170367777
 93      -0.000207748085
 94      -0.000040239795
 95       0.000123609065
 96       0.000041698605
 97       0.000023717781
 98      -0.000040668285
 99       0.000105782849
100       0.000916653393
101      -0.000012252020
102      -0.000188121306
103      -0.000007335042
104      -0.004271173745
105      -0.002480860948
106       0.001636269528
107      -0.001073056417
108       0.000053230959
109       0.000015287320
110       0.000112243910
111       0.000022348329
112      -0.000044466571
113      -0.000043183864
114      -0.000037798959
115       0.000025248288
116      -0.000282217747
117      -0.000149418158
118       0.002981892894
119       0.003633077499
120      -0.001106043987
121       0.002433529311
122      -0.000122267650
123      -0.000028581575
124      -0.000072442656
125      -0.000323300753
126      -0.000184487840
127      -0.000096571324
128      -0.000588717516
129      -0.000080601215
130      -0.000045957341
131       0.000090271350
132       0.005844508465
133      -0.000511070915
134      -0.000550297234
135      -0.002814306863
136      -0.000089172122
137      -0.000016461833
138      -0.000015811892
139      -0.000092999729
140       0.000097117149
141       0.000085034849
142       0.000694434460
143      -0.000230458224
144      -0.000134252071
145      -0.000093580438
146      -0.002462515807
147       0.003132231725
148      -0.000599892919
149       0.001002311853
150       0.000077304707
151       0.000049865321
152       0.000038965269
153       0.000105696431
154      -0.000044962667
155       0.000194604288
156       0.001124688539
157      -0.000044293431
158       0.000667015654
159      -0.000097061626
160      -0.014979697083
161       0.003843031324
162       0.006232395368
163      -0.006561237759
164       0.000147947083
165      -0.000027667190
166       0.000161622092
167       0.000253782173
168      -0.000130773674
169       0.000016308772
170       0.000092370876
171       0.000076672408
172       0.000021911709
173       0.000012223384
174      -0.001733539948
175       0.000425576208
176       0.000001595368
177       0.000528578799
178       0.000018132385
179      -0.000034429549
180      -0.000007488579
181      -0.000021313257
182       0.000017169630
183      -0.000002184584
184       0.000023163441
185       0.000058795241
186      -0.000031628145
187      -0.000049459076
188       0.001016107261
189       0.000725600939
190      -0.000167244056
191      -0.000379918827
192       0.000005604718
193      -0.000031259885
194       0.000035799631
195       0.000018303457
196      -0.000018883323
197      -0.000008772061
198      -0.000083369607
199      -0.000011007498
200      -0.000000224513
201      -0.000011086458
202       0.000214373320
203       0.000055618846
204       0.000042762344
205       0.000170194714
206       0.000007461391
207       0.000000464664
208       0.000010566047
209       0.000016659092
210      -0.000000600192
211       0.000238449104
212      -0.000366228243
213       0.000058989621
214      -0.000124613287
215      -0.000037959726
216      -0.000279753310
217      -0.000606690085
218      -0.000080819668
219      -0.000157158007
220      -0.000048145942
221       0.000063036823
222       0.000678460495
223      -0.000007982944
224      -0.000014764486
225      -0.000027310478
226       0.000317984212
227       0.000133658894
228      -0.000097221296
229       0.000023273728
230      -0.000038258851
231       0.000203805126
232      -0.000211599156
233      -0.000247319200
234      -0.000475903800
235       0.000201298670
236      -0.000002418175
237      -0.000060779608
238       0.000000790054