[Molden Format]
[Title]
 Molden file created by orca_2mkl for BaseName=/kaggle/working/Phe-2/Phe_InterFrag

[Atoms] AU
O    1   8         -2.3738720797        -2.1238745403        -2.7481550172 
O    2   8         -4.8076900518        -2.4155310923         0.7374467265 
N    3   7         -5.6789766318         2.8253503298         0.1186559039 
C    4   6         -1.1521131115         2.1816850422         1.5245044332 
C    5   6         -3.2305227307         1.6924519536        -0.4950685628 
C    6   6          1.3590834766         0.9943871198         0.8830066614 
C    7   6          2.0081514913        -1.3923010826         1.8318683889 
C    8   6          3.0365121075         2.2020052673        -0.7740771779 
C    9   6         -3.5938093519        -1.1374526162        -0.7519220287 
C   10   6          4.2825124825        -2.5433087043         1.1493560011 
C   11   6          5.3116346583         1.0573093308        -1.4606524769 
C   12   6          5.9415635267        -1.3212095854        -0.5006413652 
H   13   1         -1.8523360126         1.4607186173         3.3345219188 
H   14   1         -0.9611260501         4.2358343573         1.6898970439 
H   15   1         -2.5732325177         2.4324894947        -2.3070664814 
H   16   1          0.7156336177        -2.3511367846         3.1085503574 
H   17   1          2.5535736967         4.0532527977        -1.5225466769 
H   18   1         -5.3764182496         4.6868515142         0.5071155669 
H   19   1         -6.2751474325         2.0416355486         1.7755148658 
H   20   1          4.7588179546        -4.3905632434         1.9075575897 
H   21   1          6.5941747779         2.0218992489        -2.7408172107 
H   22   1          7.7129852457        -2.2117505850        -1.0310534759 
H   23   1         -2.5950040524        -3.9538040701        -2.7079605424 
[GTO]
  1 0
s   6 1.0 
     5484.6717000000         0.8317352088
      825.2349500000         1.5308074829
      188.0469600000         2.4771490916
       52.9645000000         3.2562802462
       16.8975700000         2.7928936336
        5.7996353000         0.9549376963
s   3 1.0 
       15.5396160000        -0.6179336976
        3.5999336000        -0.2757210088
        1.0137618000         0.8142076427
p   3 1.0 
       15.5396160000         3.1169455889
        3.5999336000         2.4014372483
        1.0137618000         1.0543605133
s   1 1.0 
        0.2700058000         0.2669561389
p   1 1.0 
        0.2700058000         0.2774319373
d   1 1.0 
        0.8000000000         1.9292013661

  2 0
s   6 1.0 
     5484.6717000000         0.8317352088
      825.2349500000         1.5308074829
      188.0469600000         2.4771490916
       52.9645000000         3.2562802462
       16.8975700000         2.7928936336
        5.7996353000         0.9549376963
s   3 1.0 
       15.5396160000        -0.6179336976
        3.5999336000        -0.2757210088
        1.0137618000         0.8142076427
p   3 1.0 
       15.5396160000         3.1169455889
        3.5999336000         2.4014372483
        1.0137618000         1.0543605133
s   1 1.0 
        0.2700058000         0.2669561389
p   1 1.0 
        0.2700058000         0.2774319373
d   1 1.0 
        0.8000000000         1.9292013661

  3 0
s   6 1.0 
     4173.5110000000         0.6790079572
      627.4579000000         1.2504643275
      142.9021000000         2.0203691378
       40.2343300000         2.6442129843
       12.8202100000         2.2650039968
        4.3904370000         0.7791872309
s   3 1.0 
       11.6263580000        -0.5158738103
        2.7162800000        -0.2550239186
        0.7722180000         0.6727344163
p   3 1.0 
       11.6263580000         2.0680595460
        2.7162800000         1.6100106206
        0.7722180000         0.7644899877
s   1 1.0 
        0.2120313000         0.2226947990
p   1 1.0 
        0.2120313000         0.2050879094
d   1 1.0 
        0.8000000000         1.9292013661

  4 0
s   6 1.0 
     3047.5249000000         0.5363343823
      457.3695100000         0.9894506076
      103.9486900000         1.5972822308
       29.2101550000         2.0791870615
        9.2866630000         1.7741742532
        3.1639270000         0.6125798260
s   3 1.0 
        7.8682724000        -0.3995563516
        1.8812885000        -0.1841552393
        0.5442493000         0.5163903794
p   3 1.0 
        7.8682724000         1.2960827175
        1.8812885000         0.9937536282
        0.5442493000         0.4959527138
s   1 1.0 
        0.1687144000         0.1876178721
p   1 1.0 
        0.1687144000         0.1541275509
d   1 1.0 
        0.8000000000         1.9292013661

  5 0
s   6 1.0 
     3047.5249000000         0.5363343823
      457.3695100000         0.9894506076
      103.9486900000         1.5972822308
       29.2101550000         2.0791870615
        9.2866630000         1.7741742532
        3.1639270000         0.6125798260
s   3 1.0 
        7.8682724000        -0.3995563516
        1.8812885000        -0.1841552393
        0.5442493000         0.5163903794
p   3 1.0 
        7.8682724000         1.2960827175
        1.8812885000         0.9937536282
        0.5442493000         0.4959527138
s   1 1.0 
        0.1687144000         0.1876178721
p   1 1.0 
        0.1687144000         0.1541275509
d   1 1.0 
        0.8000000000         1.9292013661

  6 0
s   6 1.0 
     3047.5249000000         0.5363343823
      457.3695100000         0.9894506076
      103.9486900000         1.5972822308
       29.2101550000         2.0791870615
        9.2866630000         1.7741742532
        3.1639270000         0.6125798260
s   3 1.0 
        7.8682724000        -0.3995563516
        1.8812885000        -0.1841552393
        0.5442493000         0.5163903794
p   3 1.0 
        7.8682724000         1.2960827175
        1.8812885000         0.9937536282
        0.5442493000         0.4959527138
s   1 1.0 
        0.1687144000         0.1876178721
p   1 1.0 
        0.1687144000         0.1541275509
d   1 1.0 
        0.8000000000         1.9292013661

  7 0
s   6 1.0 
     3047.5249000000         0.5363343823
      457.3695100000         0.9894506076
      103.9486900000         1.5972822308
       29.2101550000         2.0791870615
        9.2866630000         1.7741742532
        3.1639270000         0.6125798260
s   3 1.0 
        7.8682724000        -0.3995563516
        1.8812885000        -0.1841552393
        0.5442493000         0.5163903794
p   3 1.0 
        7.8682724000         1.2960827175
        1.8812885000         0.9937536282
        0.5442493000         0.4959527138
s   1 1.0 
        0.1687144000         0.1876178721
p   1 1.0 
        0.1687144000         0.1541275509
d   1 1.0 
        0.8000000000         1.9292013661

  8 0
s   6 1.0 
     3047.5249000000         0.5363343823
      457.3695100000         0.9894506076
      103.9486900000         1.5972822308
       29.2101550000         2.0791870615
        9.2866630000         1.7741742532
        3.1639270000         0.6125798260
s   3 1.0 
        7.8682724000        -0.3995563516
        1.8812885000        -0.1841552393
        0.5442493000         0.5163903794
p   3 1.0 
        7.8682724000         1.2960827175
        1.8812885000         0.9937536282
        0.5442493000         0.4959527138
s   1 1.0 
        0.1687144000         0.1876178721
p   1 1.0 
        0.1687144000         0.1541275509
d   1 1.0 
        0.8000000000         1.9292013661

  9 0
s   6 1.0 
     3047.5249000000         0.5363343823
      457.3695100000         0.9894506076
      103.9486900000         1.5972822308
       29.2101550000         2.0791870615
        9.2866630000         1.7741742532
        3.1639270000         0.6125798260
s   3 1.0 
        7.8682724000        -0.3995563516
        1.8812885000        -0.1841552393
        0.5442493000         0.5163903794
p   3 1.0 
        7.8682724000         1.2960827175
        1.8812885000         0.9937536282
        0.5442493000         0.4959527138
s   1 1.0 
        0.1687144000         0.1876178721
p   1 1.0 
        0.1687144000         0.1541275509
d   1 1.0 
        0.8000000000         1.9292013661

 10 0
s   6 1.0 
     3047.5249000000         0.5363343823
      457.3695100000         0.9894506076
      103.9486900000         1.5972822308
       29.2101550000         2.0791870615
        9.2866630000         1.7741742532
        3.1639270000         0.6125798260
s   3 1.0 
        7.8682724000        -0.3995563516
        1.8812885000        -0.1841552393
        0.5442493000         0.5163903794
p   3 1.0 
        7.8682724000         1.2960827175
        1.8812885000         0.9937536282
        0.5442493000         0.4959527138
s   1 1.0 
        0.1687144000         0.1876178721
p   1 1.0 
        0.1687144000         0.1541275509
d   1 1.0 
        0.8000000000         1.9292013661

 11 0
s   6 1.0 
     3047.5249000000         0.5363343823
      457.3695100000         0.9894506076
      103.9486900000         1.5972822308
       29.2101550000         2.0791870615
        9.2866630000         1.7741742532
        3.1639270000         0.6125798260
s   3 1.0 
        7.8682724000        -0.3995563516
        1.8812885000        -0.1841552393
        0.5442493000         0.5163903794
p   3 1.0 
        7.8682724000         1.2960827175
        1.8812885000         0.9937536282
        0.5442493000         0.4959527138
s   1 1.0 
        0.1687144000         0.1876178721
p   1 1.0 
        0.1687144000         0.1541275509
d   1 1.0 
        0.8000000000         1.9292013661

 12 0
s   6 1.0 
     3047.5249000000         0.5363343823
      457.3695100000         0.9894506076
      103.9486900000         1.5972822308
       29.2101550000         2.0791870615
        9.2866630000         1.7741742532
        3.1639270000         0.6125798260
s   3 1.0 
        7.8682724000        -0.3995563516
        1.8812885000        -0.1841552393
        0.5442493000         0.5163903794
p   3 1.0 
        7.8682724000         1.2960827175
        1.8812885000         0.9937536282
        0.5442493000         0.4959527138
s   1 1.0 
        0.1687144000         0.1876178721
p   1 1.0 
        0.1687144000         0.1541275509
d   1 1.0 
        0.8000000000         1.9292013661

 13 0
s   3 1.0 
       18.7311370000         0.2149354183
        2.8253937000         0.3645711272
        0.6401217000         0.4150514277
s   1 1.0 
        0.1612778000         0.1813806839
p   1 1.0 
        1.1000000000         1.6057611426

 14 0
s   3 1.0 
       18.7311370000         0.2149354183
        2.8253937000         0.3645711272
        0.6401217000         0.4150514277
s   1 1.0 
        0.1612778000         0.1813806839
p   1 1.0 
        1.1000000000         1.6057611426

 15 0
s   3 1.0 
       18.7311370000         0.2149354183
        2.8253937000         0.3645711272
        0.6401217000         0.4150514277
s   1 1.0 
        0.1612778000         0.1813806839
p   1 1.0 
        1.1000000000         1.6057611426

 16 0
s   3 1.0 
       18.7311370000         0.2149354183
        2.8253937000         0.3645711272
        0.6401217000         0.4150514277
s   1 1.0 
        0.1612778000         0.1813806839
p   1 1.0 
        1.1000000000         1.6057611426

 17 0
s   3 1.0 
       18.7311370000         0.2149354183
        2.8253937000         0.3645711272
        0.6401217000         0.4150514277
s   1 1.0 
        0.1612778000         0.1813806839
p   1 1.0 
        1.1000000000         1.6057611426

 18 0
s   3 1.0 
       18.7311370000         0.2149354183
        2.8253937000         0.3645711272
        0.6401217000         0.4150514277
s   1 1.0 
        0.1612778000         0.1813806839
p   1 1.0 
        1.1000000000         1.6057611426

 19 0
s   3 1.0 
       18.7311370000         0.2149354183
        2.8253937000         0.3645711272
        0.6401217000         0.4150514277
s   1 1.0 
        0.1612778000         0.1813806839
p   1 1.0 
        1.1000000000         1.6057611426

 20 0
s   3 1.0 
       18.7311370000         0.2149354183
        2.8253937000         0.3645711272
        0.6401217000         0.4150514277
s   1 1.0 
        0.1612778000         0.1813806839
p   1 1.0 
        1.1000000000         1.6057611426

 21 0
s   3 1.0 
       18.7311370000         0.2149354183
        2.8253937000         0.3645711272
        0.6401217000         0.4150514277
s   1 1.0 
        0.1612778000         0.1813806839
p   1 1.0 
        1.1000000000         1.6057611426

 22 0
s   3 1.0 
       18.7311370000         0.2149354183
        2.8253937000         0.3645711272
        0.6401217000         0.4150514277
s   1 1.0 
        0.1612778000         0.1813806839
p   1 1.0 
        1.1000000000         1.6057611426

 23 0
s   3 1.0 
       18.7311370000         0.2149354183
        2.8253937000         0.3645711272
        0.6401217000         0.4150514277
s   1 1.0 
        0.1612778000         0.1813806839
p   1 1.0 
        1.1000000000         1.6057611426

[5D]
[7F]
[9G]
[MO]
 Sym=     1a
 Ene= -1.91913141121374E+01
 Spin= Alpha
 Occup= 2.000000
  1       0.995105612503
  2       0.030351732963
  3      -0.001060072059
  4      -0.001017978461
  5       0.001421590628
  6      -0.022009399594
  7       0.003517661132
  8      -0.002274187225
  9      -0.005745208310
 10      -0.000716243753
 11       0.000509709142
 12      -0.000301046104
 13      -0.000684303440
 14       0.000300925120
 15      -0.000589278554
 16      -0.000618775623
 17      -0.000011042240
 18      -0.000176193920
 19       0.000008155346
 20       0.002871760975
 21      -0.000327661435
 22       0.002342317136
 23       0.000786741386
 24      -0.000321763016
 25       0.000166110189
 26      -0.000121315063
 27      -0.000436540957
 28       0.000171006835
 29      -0.000011751404
 30      -0.000156138846
 31      -0.000069540853
 32       0.000162183642
 33       0.000008881605
 34      -0.000914871590
 35      -0.000401558864
 36      -0.000980332840
 37      -0.000506518766
 38       0.000009091303
 39      -0.000177830408
 40      -0.000017589330
 41      -0.000093931653
 42      -0.000033147608
 43       0.000026191438
 44       0.000241941603
 45       0.000117140401
 46       0.000005102616
 47       0.000018260163
 48      -0.001035952103
 49       0.002453592167
 50      -0.000431590418
 51       0.000209084926
 52       0.000031503553
 53      -0.000078698296
 54      -0.000058011981
 55      -0.000082729903
 56      -0.000068010133
 57      -0.000061637902
 58      -0.000888135814
 59      -0.000012193903
 60       0.000236644570
 61      -0.000168167197
 62       0.002886008600
 63      -0.000924223315
 64      -0.000301046960
 65       0.004414580060
 66       0.000040491799
 67      -0.000012307543
 68      -0.000264150326
 69       0.000106319590
 70       0.000214746470
 71       0.000046972997
 72       0.000508367858
 73      -0.000158359105
 74      -0.000013102211
 75       0.000064221549
 76      -0.001807920514
 77       0.001943974954
 78      -0.000225174726
 79      -0.000923893303
 80       0.000038469762
 81      -0.000044897426
 82      -0.000037920201
 83      -0.000007237525
 84       0.000033808317
 85       0.000020996807
 86       0.000271808273
 87      -0.000104819585
 88      -0.000024087308
 89      -0.000050473504
 90      -0.000645038372
 91      -0.000280306923
 92       0.000500658753
 93       0.000356646825
 94      -0.000013162976
 95       0.000003116985
 96       0.000031748329
 97       0.000006962178
 98      -0.000059142925
 99       0.000010611352
100       0.000066614103
101       0.000031542209
102       0.000004002906
103      -0.000013483597
104      -0.001065642630
105      -0.000272036478
106       0.000671251117
107      -0.000288934231
108      -0.000005101328
109       0.000024085616
110       0.000028217507
111       0.000012064652
112      -0.000001680911
113       0.000040908595
114       0.000042447461
115       0.000187884126
116      -0.000300025817
117      -0.000614388613
118       0.007823869605
119       0.006193230424
120      -0.004354345007
121      -0.009612808429
122      -0.000226065826
123       0.000039988654
124       0.000052273691
125      -0.000389730273
126       0.000000646001
127      -0.000000509574
128      -0.000009592195
129       0.000019096248
130       0.000020963242
131      -0.000005529900
132       0.000453003879
133      -0.000480130115
134      -0.000121093757
135       0.000132597394
136      -0.000002480919
137       0.000018429403
138      -0.000014263207
139       0.000013085165
140       0.000009123477
141      -0.000002981010
142      -0.000012533941
143      -0.000020898124
144       0.000002764522
145       0.000009420603
146       0.000690769408
147      -0.000192713255
148      -0.000037728150
149       0.000137153773
150      -0.000004522470
151      -0.000003251302
152       0.000002288189
153      -0.000000672206
154      -0.000002705895
155       0.000001818054
156       0.000017350422
157      -0.000016082520
158       0.000000922543
159       0.000007044590
160       0.000038276364
161       0.000131087008
162      -0.000218219775
163       0.000102246911
164       0.000008863744
165       0.000000657156
166      -0.000001824970
167       0.000002672481
168      -0.000000051460
169      -0.000003283224
170       0.000662838389
171      -0.000043072277
172      -0.000023559823
173      -0.000055252086
174       0.000090337191
175       0.000108201867
176      -0.000086815953
177       0.000015604164
178       0.000008815680
179       0.000090320460
180       0.001556766784
181      -0.000026293694
182       0.000072251874
183       0.000009502823
184       0.000096032289
185      -0.000024374558
186      -0.000005582397
187      -0.000010077115
188      -0.000034824274
189      -0.000018437474
190      -0.000306261583
191       0.000015674154
192       0.000007466943
193      -0.000006960502
194       0.000176874164
195       0.000548886133
196      -0.000041978398
197      -0.000028730485
198       0.000012773715
199      -0.000159648730
200       0.000213519977
201      -0.000026449591
202       0.000000948725
203       0.000026580373
204      -0.000031065168
205      -0.000074600074
206       0.000025506235
207       0.000000851817
208       0.000000904048
209      -0.000010399004
210       0.000017369681
211       0.000006323743
212      -0.000004069958
213      -0.000002169587
214      -0.000021382036
215      -0.000069085378
216       0.000000257166
217       0.000004967042
218      -0.000007186455
219      -0.000434416394
220       0.000375836273
221      -0.000361823453
222      -0.001693511614
223       0.000267811893
 Sym=     1a
 Ene= -1.91314053471627E+01
 Spin= Alpha
 Occup= 2.000000
  1       0.000536772923
  2      -0.000639266231
  3       0.000052256838
  4      -0.000260305148
  5      -0.000046646832
  6       0.003551415293
  7       0.000071929521
  8       0.002863347885
  9       0.000147658238
 10      -0.000236114077
 11       0.000167710060
 12       0.000338188341
 13      -0.000321898915
 14      -0.000188090052
 15       0.995202965148
 16       0.030865903267
 17       0.001199947227
 18       0.001232709582
 19      -0.001467915093
 20      -0.026937907542
 21      -0.004286652197
 22      -0.004473268284
 23       0.005128366479
 24      -0.000036850358
 25       0.000226345831
 26       0.000237311626
 27      -0.000013855738
 28      -0.000201718896
 29       0.000029160566
 30       0.000252111991
 31      -0.000022356053
 32      -0.000120738139
 33      -0.000060894321
 34       0.000073010068
 35       0.000280747343
 36       0.001299799136
 37       0.000469871297
 38       0.000040227520
 39       0.000151269560
 40      -0.000001927717
 41       0.000135762981
 42       0.000113462088
 43       0.000102687810
 44       0.000880316922
 45      -0.000082298749
 46      -0.000167462662
 47       0.000002340523
 48      -0.004165259327
 49      -0.001746355483
 50       0.003202640651
 51       0.000768182345
 52      -0.000083589002
 53       0.000018440232
 54      -0.000053074360
 55       0.000001068964
 56       0.000022179423
 57      -0.000090809855
 58      -0.000922750635
 59       0.000101270064
 60       0.000324872958
 61       0.000146856264
 62       0.006617684567
 63       0.001705736363
 64      -0.003411934799
 65      -0.003839157819
 66       0.000145725512
 67      -0.000020340898
 68       0.000427212074
 69       0.000040767988
 70      -0.000322621068
 71      -0.000066206653
 72      -0.000484755459
 73       0.000066820359
 74       0.000098025575
 75      -0.000049994795
 76       0.003838460595
 77      -0.003653923619
 78      -0.001448409831
 79       0.001961278482
 80      -0.000114245112
 81      -0.000026337143
 82      -0.000040035080
 83       0.000014328414
 84      -0.000041594144
 85       0.000010617983
 86       0.000072317983
 87      -0.000089359657
 88      -0.000110095508
 89      -0.000000725919
 90      -0.001287525243
 91       0.001910406576
 92      -0.001044319363
 93       0.000052001706
 94       0.000003629545
 95      -0.000033691222
 96       0.000026832175
 97       0.000023980857
 98       0.000069098120
 99      -0.000012368004
100      -0.000075274383
101      -0.000036774244
102      -0.000004329376
103       0.000001144615
104       0.002055949437
105      -0.000272008219
106      -0.000766764320
107       0.000957700333
108       0.000016927207
109      -0.000025735920
110      -0.000028828090
111      -0.000003202550
112      -0.000026415304
113       0.000284650567
114       0.000622355824
115      -0.000089086309
116      -0.000210308735
117      -0.000017027492
118       0.007444854448
119      -0.008251447781
120      -0.008857139896
121       0.010760120469
122      -0.000196559810
123       0.000478847282
124       0.000495354304
125      -0.000153196476
126      -0.000326464397
127      -0.000002889162
128      -0.000045301991
129       0.000032989606
130      -0.000016502079
131       0.000025747007
132      -0.000886722619
133       0.000434981905
134      -0.000079289576
135      -0.000499911049
136      -0.000009914828
137       0.000009708685
138      -0.000013686407
139       0.000011026939
140      -0.000001635510
141       0.000000611334
142      -0.000010075901
143       0.000033549873
144      -0.000011688545
145       0.000003518385
146      -0.000496269752
147      -0.000039613659
148       0.000263540403
149      -0.000298228256
150      -0.000001670642
151       0.000002279087
152      -0.000007766897
153       0.000002900402
154       0.000005103775
155      -0.000003364582
156      -0.000028431184
157       0.000005259633
158      -0.000004465320
159      -0.000017942266
160       0.000152805490
161      -0.000016068904
162       0.000376437915
163      -0.000032671771
164       0.000003127398
165      -0.000005560278
166      -0.000003959429
167      -0.000007848730
168      -0.000007574437
169       0.000322577297
170       0.000152449209
171       0.000072249124
172      -0.000106760538
173      -0.000049929412
174      -0.000113273576
175      -0.000713141520
176       0.000062254409
177       0.000011582474
178      -0.000083292252
179      -0.000587914438
180      -0.001044092238
181      -0.000061099981
182      -0.000022319966
183       0.000015746593
184       0.000225263935
185       0.000091464852
186      -0.000045601689
187       0.000037688991
188       0.000020285265
189       0.000007565742
190       0.000329644815
191      -0.000005165352
192      -0.000013613985
193      -0.000016431459
194      -0.000122515896
195      -0.000379265355
196       0.000077356267
197      -0.000016510973
198      -0.000046566892
199       0.000048589740
200       0.000125898929
201      -0.000007290156
202       0.000012154993
203      -0.000066327862
204       0.000031509235
205       0.000070456961
206       0.000002310049
207       0.000008828958
208       0.000017314664
209      -0.000009785373
210      -0.000038303433
211       0.000005318191
212       0.000000364405
213       0.000010469353
214       0.000008744138
215       0.000048719182
216      -0.000006373590
217      -0.000012366876
218      -0.000002386299
219       0.000135382667
220       0.000176461299
221       0.000100064964
222      -0.000069885730
223      -0.000136804809
 Sym=     1a
 Ene= -1.43139255839716E+01
 Spin= Alpha
 Occup= 2.000000
  1      -0.000012749932
  2      -0.000182638740
  3      -0.000050135055
  4      -0.000030357697
  5      -0.000021133084
  6       0.000905424703
  7       0.000007803268
  8       0.000346096366
  9       0.000322585272
 10       0.000003548306
 11      -0.000027031435
 12       0.000040274946
 13      -0.000009796497
 14       0.000017342511
 15       0.000010613902
 16       0.000147640116
 17       0.000028924697
 18      -0.000013684088
 19       0.000055019437
 20      -0.000811482638
 21      -0.000052789614
 22      -0.000377950516
 23      -0.000122627287
 24       0.000028417275
 25      -0.000057955210
 26      -0.000024025402
 27       0.000087548412
 28      -0.000011739242
 29       0.995169498135
 30       0.032921120151
 31       0.001402625318
 32       0.000548694195
 33       0.002079915513
 34      -0.021610755233
 35      -0.005728704751
 36       0.001758631613
 37      -0.000811081697
 38       0.000357506985
 39      -0.000289242074
 40      -0.000239003469
 41      -0.001031312378
 42       0.000687119561
 43       0.000058339907
 44       0.000112215763
 45       0.000315647238
 46      -0.000069414215
 47       0.000081921209
 48      -0.005103949057
 49      -0.002618583836
 50       0.001891219553
 51       0.001536209277
 52       0.000149369318
 53      -0.000064305757
 54       0.000028273055
 55      -0.000230537390
 56       0.000090160572
 57      -0.000060781232
 58      -0.001007335968
 59      -0.000028979876
 60       0.000127179821
 61      -0.000041514660
 62       0.010140654531
 63      -0.004280629764
 64       0.002371413466
 65       0.001695578033
 66       0.000249458659
 67       0.000064545558
 68      -0.000023811817
 69      -0.000211068925
 70       0.000197557340
 71      -0.000081052004
 72      -0.000734802066
 73       0.000247538671
 74      -0.000076423120
 75       0.000040787699
 76       0.002892359498
 77      -0.005284127034
 78       0.002277891379
 79       0.000573828742
 80      -0.000101435922
 81      -0.000030491377
 82       0.000007685458
 83       0.000155631934
 84      -0.000101603585
 85      -0.000016594327
 86      -0.000153563950
 87       0.000014594162
 88      -0.000009955766
 89      -0.000000794205
 90       0.001609715898
 91       0.001197564533
 92       0.000984488270
 93      -0.000916896548
 94      -0.000025438821
 95      -0.000031459310
 96      -0.000054544458
 97      -0.000062395702
 98       0.000073136291
 99      -0.000016519417
100      -0.000183304607
101       0.000050164086
102       0.000008124623
103       0.000004154615
104       0.001380619299
105       0.000603919209
106      -0.001445110958
107       0.000677227614
108       0.000042462691
109       0.000004287961
110      -0.000094948045
111      -0.000065461654
112       0.000005415131
113      -0.000034812748
114      -0.000597778561
115       0.000134687302
116      -0.000315282841
117      -0.000023990487
118       0.000019030342
119      -0.000565448889
120       0.000260764466
121       0.000833894871
122      -0.000101556939
123      -0.000036804542
124      -0.000043919172
125       0.000138430033
126       0.000026597651
127      -0.000007120419
128      -0.000067377852
129       0.000028543571
130      -0.000039862937
131      -0.000006343183
132      -0.000822493310
133       0.000030121046
134      -0.000237832211
135       0.000055188159
136      -0.000019835700
137      -0.000013936205
138      -0.000008846976
139       0.000009285116
140      -0.000009116214
141      -0.000007305114
142      -0.000065449051
143       0.000031840821
144      -0.000003551154
145      -0.000034628903
146      -0.000814607120
147       0.000186680541
148       0.000010821755
149      -0.000125542137
150      -0.000008331461
151      -0.000014197665
152      -0.000011254854
153       0.000007571548
154      -0.000019577236
155      -0.000006210506
156      -0.000059785044
157       0.000015603282
158      -0.000017314463
159      -0.000016337056
160       0.000420231626
161      -0.000229504463
162       0.000100111564
163       0.000131726154
164      -0.000000773341
165      -0.000009324369
166      -0.000012273421
167      -0.000006197312
168      -0.000000741356
169       0.000021044910
170      -0.000691431194
171       0.000177947073
172      -0.000132761455
173       0.000098196491
174       0.000005594636
175      -0.000847821454
176       0.000236439481
177       0.000066482343
178      -0.000005766224
179      -0.000527487065
180      -0.000211315239
181       0.000191025529
182      -0.000078474175
183      -0.000106659324
184       0.000034118911
185       0.000809050510
186       0.000000585550
187      -0.000003519466
188      -0.000017872411
189       0.000029838876
190       0.000767065797
191      -0.000003436162
192      -0.000008225646
193      -0.000006028249
194      -0.000708763850
195       0.002101595583
196       0.000566413139
197       0.001858686110
198       0.000499069127
199      -0.000634935958
200       0.002250736826
201      -0.000337193593
202      -0.000818074157
203       0.001746832766
204       0.000005224550
205       0.000032368810
206      -0.000001749024
207       0.000008522424
208      -0.000000483355
209       0.000009466588
210       0.000046524553
211      -0.000008272708
212      -0.000000866278
213       0.000004602435
214       0.000006004582
215       0.000088805055
216      -0.000003479868
217       0.000000896176
218      -0.000003132073
219       0.000007751809
220       0.000134295126
221      -0.000009950551
222      -0.000004810546