[Molden Format]
[Title]
 Molden file created by orca_2mkl for BaseName=/kaggle/working/Phe-NO2-2/Phe-NO2_InterFrag

[Atoms] AU
O    1   8         -3.5880721434        -2.1333949805        -2.7945685808 
O    2   8         -6.3625170306        -2.8827413125         0.3546278960 
O    3   8          7.4335703396        -3.0258918466         0.5290855230 
O    4   8          8.0403765190         0.3253276923        -1.7654048310 
N    5   7         -7.8981028178         2.1906423440        -0.2170426054 
N    6   7          6.6943416013        -1.0130765112        -0.4013778308 
C    7   6         -3.4698905607         2.1874827219         1.5764265485 
C    8   6         -5.2726779541         1.4450660157        -0.6331319542 
C    9   6         -0.7750484971         1.3938260916         1.1396295807 
C   10   6          0.1397773729        -0.8852705533         2.1446577483 
C   11   6          0.8244157026         2.8609414318        -0.3869705588 
C   12   6          2.5898280926        -1.6915562234         1.6539374453 
C   13   6          3.2794515198         2.0896308130        -0.9027505201 
C   14   6         -5.1811037153        -1.4005440680        -0.9595160034 
C   15   6          4.1282692560        -0.1861720393         0.1291136484 
H   16   1         -4.2037675945         1.3273474159         3.3085551920 
H   17   1         -3.5886919735         4.2431305899         1.7704598484 
H   18   1         -4.5767201648         2.3240192146        -2.3665304937 
H   19   1         -1.0894743594        -2.0374875998         3.3147837293 
H   20   1          0.1330537274         4.6249781011        -1.1733611922 
H   21   1          3.3056185576        -3.4446853935         2.4274231389 
H   22   1          4.5223300673         3.2150042997        -2.0742030888 
H   23   1         -7.9152105085         4.0667926854         0.2139642415 
H   24   1         -8.5172035555         1.2825722449         1.3657126359 
H   25   1         -3.5279618448        -3.9761916556        -2.8047693225 
[GTO]
  1 0
s   6 1.0 
     5484.6717000000         0.8317352088
      825.2349500000         1.5308074829
      188.0469600000         2.4771490916
       52.9645000000         3.2562802462
       16.8975700000         2.7928936336
        5.7996353000         0.9549376963
s   3 1.0 
       15.5396160000        -0.6179336976
        3.5999336000        -0.2757210088
        1.0137618000         0.8142076427
p   3 1.0 
       15.5396160000         3.1169455889
        3.5999336000         2.4014372483
        1.0137618000         1.0543605133
s   1 1.0 
        0.2700058000         0.2669561389
p   1 1.0 
        0.2700058000         0.2774319373
d   1 1.0 
        0.8000000000         1.9292013661

  2 0
s   6 1.0 
     5484.6717000000         0.8317352088
      825.2349500000         1.5308074829
      188.0469600000         2.4771490916
       52.9645000000         3.2562802462
       16.8975700000         2.7928936336
        5.7996353000         0.9549376963
s   3 1.0 
       15.5396160000        -0.6179336976
        3.5999336000        -0.2757210088
        1.0137618000         0.8142076427
p   3 1.0 
       15.5396160000         3.1169455889
        3.5999336000         2.4014372483
        1.0137618000         1.0543605133
s   1 1.0 
        0.2700058000         0.2669561389
p   1 1.0 
        0.2700058000         0.2774319373
d   1 1.0 
        0.8000000000         1.9292013661

  3 0
s   6 1.0 
     5484.6717000000         0.8317352088
      825.2349500000         1.5308074829
      188.0469600000         2.4771490916
       52.9645000000         3.2562802462
       16.8975700000         2.7928936336
        5.7996353000         0.9549376963
s   3 1.0 
       15.5396160000        -0.6179336976
        3.5999336000        -0.2757210088
        1.0137618000         0.8142076427
p   3 1.0 
       15.5396160000         3.1169455889
        3.5999336000         2.4014372483
        1.0137618000         1.0543605133
s   1 1.0 
        0.2700058000         0.2669561389
p   1 1.0 
        0.2700058000         0.2774319373
d   1 1.0 
        0.8000000000         1.9292013661

  4 0
s   6 1.0 
     5484.6717000000         0.8317352088
      825.2349500000         1.5308074829
      188.0469600000         2.4771490916
       52.9645000000         3.2562802462
       16.8975700000         2.7928936336
        5.7996353000         0.9549376963
s   3 1.0 
       15.5396160000        -0.6179336976
        3.5999336000        -0.2757210088
        1.0137618000         0.8142076427
p   3 1.0 
       15.5396160000         3.1169455889
        3.5999336000         2.4014372483
        1.0137618000         1.0543605133
s   1 1.0 
        0.2700058000         0.2669561389
p   1 1.0 
        0.2700058000         0.2774319373
d   1 1.0 
        0.8000000000         1.9292013661

  5 0
s   6 1.0 
     4173.5110000000         0.6790079572
      627.4579000000         1.2504643275
      142.9021000000         2.0203691378
       40.2343300000         2.6442129843
       12.8202100000         2.2650039968
        4.3904370000         0.7791872309
s   3 1.0 
       11.6263580000        -0.5158738103
        2.7162800000        -0.2550239186
        0.7722180000         0.6727344163
p   3 1.0 
       11.6263580000         2.0680595460
        2.7162800000         1.6100106206
        0.7722180000         0.7644899877
s   1 1.0 
        0.2120313000         0.2226947990
p   1 1.0 
        0.2120313000         0.2050879094
d   1 1.0 
        0.8000000000         1.9292013661

  6 0
s   6 1.0 
     4173.5110000000         0.6790079572
      627.4579000000         1.2504643275
      142.9021000000         2.0203691378
       40.2343300000         2.6442129843
       12.8202100000         2.2650039968
        4.3904370000         0.7791872309
s   3 1.0 
       11.6263580000        -0.5158738103
        2.7162800000        -0.2550239186
        0.7722180000         0.6727344163
p   3 1.0 
       11.6263580000         2.0680595460
        2.7162800000         1.6100106206
        0.7722180000         0.7644899877
s   1 1.0 
        0.2120313000         0.2226947990
p   1 1.0 
        0.2120313000         0.2050879094
d   1 1.0 
        0.8000000000         1.9292013661

  7 0
s   6 1.0 
     3047.5249000000         0.5363343823
      457.3695100000         0.9894506076
      103.9486900000         1.5972822308
       29.2101550000         2.0791870615
        9.2866630000         1.7741742532
        3.1639270000         0.6125798260
s   3 1.0 
        7.8682724000        -0.3995563516
        1.8812885000        -0.1841552393
        0.5442493000         0.5163903794
p   3 1.0 
        7.8682724000         1.2960827175
        1.8812885000         0.9937536282
        0.5442493000         0.4959527138
s   1 1.0 
        0.1687144000         0.1876178721
p   1 1.0 
        0.1687144000         0.1541275509
d   1 1.0 
        0.8000000000         1.9292013661

  8 0
s   6 1.0 
     3047.5249000000         0.5363343823
      457.3695100000         0.9894506076
      103.9486900000         1.5972822308
       29.2101550000         2.0791870615
        9.2866630000         1.7741742532
        3.1639270000         0.6125798260
s   3 1.0 
        7.8682724000        -0.3995563516
        1.8812885000        -0.1841552393
        0.5442493000         0.5163903794
p   3 1.0 
        7.8682724000         1.2960827175
        1.8812885000         0.9937536282
        0.5442493000         0.4959527138
s   1 1.0 
        0.1687144000         0.1876178721
p   1 1.0 
        0.1687144000         0.1541275509
d   1 1.0 
        0.8000000000         1.9292013661

  9 0
s   6 1.0 
     3047.5249000000         0.5363343823
      457.3695100000         0.9894506076
      103.9486900000         1.5972822308
       29.2101550000         2.0791870615
        9.2866630000         1.7741742532
        3.1639270000         0.6125798260
s   3 1.0 
        7.8682724000        -0.3995563516
        1.8812885000        -0.1841552393
        0.5442493000         0.5163903794
p   3 1.0 
        7.8682724000         1.2960827175
        1.8812885000         0.9937536282
        0.5442493000         0.4959527138
s   1 1.0 
        0.1687144000         0.1876178721
p   1 1.0 
        0.1687144000         0.1541275509
d   1 1.0 
        0.8000000000         1.9292013661

 10 0
s   6 1.0 
     3047.5249000000         0.5363343823
      457.3695100000         0.9894506076
      103.9486900000         1.5972822308
       29.2101550000         2.0791870615
        9.2866630000         1.7741742532
        3.1639270000         0.6125798260
s   3 1.0 
        7.8682724000        -0.3995563516
        1.8812885000        -0.1841552393
        0.5442493000         0.5163903794
p   3 1.0 
        7.8682724000         1.2960827175
        1.8812885000         0.9937536282
        0.5442493000         0.4959527138
s   1 1.0 
        0.1687144000         0.1876178721
p   1 1.0 
        0.1687144000         0.1541275509
d   1 1.0 
        0.8000000000         1.9292013661

 11 0
s   6 1.0 
     3047.5249000000         0.5363343823
      457.3695100000         0.9894506076
      103.9486900000         1.5972822308
       29.2101550000         2.0791870615
        9.2866630000         1.7741742532
        3.1639270000         0.6125798260
s   3 1.0 
        7.8682724000        -0.3995563516
        1.8812885000        -0.1841552393
        0.5442493000         0.5163903794
p   3 1.0 
        7.8682724000         1.2960827175
        1.8812885000         0.9937536282
        0.5442493000         0.4959527138
s   1 1.0 
        0.1687144000         0.1876178721
p   1 1.0 
        0.1687144000         0.1541275509
d   1 1.0 
        0.8000000000         1.9292013661

 12 0
s   6 1.0 
     3047.5249000000         0.5363343823
      457.3695100000         0.9894506076
      103.9486900000         1.5972822308
       29.2101550000         2.0791870615
        9.2866630000         1.7741742532
        3.1639270000         0.6125798260
s   3 1.0 
        7.8682724000        -0.3995563516
        1.8812885000        -0.1841552393
        0.5442493000         0.5163903794
p   3 1.0 
        7.8682724000         1.2960827175
        1.8812885000         0.9937536282
        0.5442493000         0.4959527138
s   1 1.0 
        0.1687144000         0.1876178721
p   1 1.0 
        0.1687144000         0.1541275509
d   1 1.0 
        0.8000000000         1.9292013661

 13 0
s   6 1.0 
     3047.5249000000         0.5363343823
      457.3695100000         0.9894506076
      103.9486900000         1.5972822308
       29.2101550000         2.0791870615
        9.2866630000         1.7741742532
        3.1639270000         0.6125798260
s   3 1.0 
        7.8682724000        -0.3995563516
        1.8812885000        -0.1841552393
        0.5442493000         0.5163903794
p   3 1.0 
        7.8682724000         1.2960827175
        1.8812885000         0.9937536282
        0.5442493000         0.4959527138
s   1 1.0 
        0.1687144000         0.1876178721
p   1 1.0 
        0.1687144000         0.1541275509
d   1 1.0 
        0.8000000000         1.9292013661

 14 0
s   6 1.0 
     3047.5249000000         0.5363343823
      457.3695100000         0.9894506076
      103.9486900000         1.5972822308
       29.2101550000         2.0791870615
        9.2866630000         1.7741742532
        3.1639270000         0.6125798260
s   3 1.0 
        7.8682724000        -0.3995563516
        1.8812885000        -0.1841552393
        0.5442493000         0.5163903794
p   3 1.0 
        7.8682724000         1.2960827175
        1.8812885000         0.9937536282
        0.5442493000         0.4959527138
s   1 1.0 
        0.1687144000         0.1876178721
p   1 1.0 
        0.1687144000         0.1541275509
d   1 1.0 
        0.8000000000         1.9292013661

 15 0
s   6 1.0 
     3047.5249000000         0.5363343823
      457.3695100000         0.9894506076
      103.9486900000         1.5972822308
       29.2101550000         2.0791870615
        9.2866630000         1.7741742532
        3.1639270000         0.6125798260
s   3 1.0 
        7.8682724000        -0.3995563516
        1.8812885000        -0.1841552393
        0.5442493000         0.5163903794
p   3 1.0 
        7.8682724000         1.2960827175
        1.8812885000         0.9937536282
        0.5442493000         0.4959527138
s   1 1.0 
        0.1687144000         0.1876178721
p   1 1.0 
        0.1687144000         0.1541275509
d   1 1.0 
        0.8000000000         1.9292013661

 16 0
s   3 1.0 
       18.7311370000         0.2149354183
        2.8253937000         0.3645711272
        0.6401217000         0.4150514277
s   1 1.0 
        0.1612778000         0.1813806839
p   1 1.0 
        1.1000000000         1.6057611426

 17 0
s   3 1.0 
       18.7311370000         0.2149354183
        2.8253937000         0.3645711272
        0.6401217000         0.4150514277
s   1 1.0 
        0.1612778000         0.1813806839
p   1 1.0 
        1.1000000000         1.6057611426

 18 0
s   3 1.0 
       18.7311370000         0.2149354183
        2.8253937000         0.3645711272
        0.6401217000         0.4150514277
s   1 1.0 
        0.1612778000         0.1813806839
p   1 1.0 
        1.1000000000         1.6057611426

 19 0
s   3 1.0 
       18.7311370000         0.2149354183
        2.8253937000         0.3645711272
        0.6401217000         0.4150514277
s   1 1.0 
        0.1612778000         0.1813806839
p   1 1.0 
        1.1000000000         1.6057611426

 20 0
s   3 1.0 
       18.7311370000         0.2149354183
        2.8253937000         0.3645711272
        0.6401217000         0.4150514277
s   1 1.0 
        0.1612778000         0.1813806839
p   1 1.0 
        1.1000000000         1.6057611426

 21 0
s   3 1.0 
       18.7311370000         0.2149354183
        2.8253937000         0.3645711272
        0.6401217000         0.4150514277
s   1 1.0 
        0.1612778000         0.1813806839
p   1 1.0 
        1.1000000000         1.6057611426

 22 0
s   3 1.0 
       18.7311370000         0.2149354183
        2.8253937000         0.3645711272
        0.6401217000         0.4150514277
s   1 1.0 
        0.1612778000         0.1813806839
p   1 1.0 
        1.1000000000         1.6057611426

 23 0
s   3 1.0 
       18.7311370000         0.2149354183
        2.8253937000         0.3645711272
        0.6401217000         0.4150514277
s   1 1.0 
        0.1612778000         0.1813806839
p   1 1.0 
        1.1000000000         1.6057611426

 24 0
s   3 1.0 
       18.7311370000         0.2149354183
        2.8253937000         0.3645711272
        0.6401217000         0.4150514277
s   1 1.0 
        0.1612778000         0.1813806839
p   1 1.0 
        1.1000000000         1.6057611426

 25 0
s   3 1.0 
       18.7311370000         0.2149354183
        2.8253937000         0.3645711272
        0.6401217000         0.4150514277
s   1 1.0 
        0.1612778000         0.1813806839
p   1 1.0 
        1.1000000000         1.6057611426

[5D]
[7F]
[9G]
[MO]
 Sym=     1a
 Ene= -1.92053459227170E+01
 Spin= Alpha
 Occup= 2.000000
  1       0.995105535195
  2       0.030358489475
  3      -0.001056765222
  4      -0.001199598339
  5       0.001270304595
  6      -0.022019212144
  7       0.004514854480
  8      -0.001570348882
  9      -0.005285726425
 10      -0.000602545468
 11       0.000598042827
 12      -0.000153257090
 13      -0.000820299154
 14       0.000087202513
 15      -0.000584649508
 16      -0.000611149364
 17       0.000014991324
 18      -0.000173100619
 19       0.000003970914
 20       0.002858045628
 21      -0.000773566157
 22       0.002231267512
 23       0.000763556121
 24      -0.000285559146
 25       0.000191485258
 26      -0.000063362284
 27      -0.000491755361
 28       0.000037947996
 29      -0.000021350982
 30      -0.000021789701
 31       0.000002257405
 32       0.000003663352
 33      -0.000006325207
 34       0.000150661741
 35      -0.000051881042
 36       0.000053660646
 37      -0.000002010635
 38      -0.000004147995
 39       0.000002134665
 40      -0.000001083141
 41      -0.000002451092
 42      -0.000009923360
 43      -0.000003412169
 44      -0.000002014028
 45       0.000003885713
 46      -0.000002484814
 47       0.000001180275
 48      -0.000051623492
 49      -0.000012351447
 50       0.000018526573
 51      -0.000008256708
 52      -0.000002406470
 53      -0.000004190362
 54      -0.000002213649
 55       0.000004513297
 56       0.000000360944
 57      -0.000013414820
 58      -0.000180296052
 59      -0.000096771632
 60       0.000159493259
 61       0.000012181787
 62      -0.000865331973
 63      -0.000176387634
 64      -0.001082184355
 65      -0.000572368702
 66      -0.000019576362
 67      -0.000182809753
 68      -0.000044564552
 69      -0.000060895189
 70      -0.000053087594
 71       0.000004833460
 72       0.000037270301
 73      -0.000004408370
 74      -0.000002857380
 75       0.000002468795
 76      -0.000393490070
 77       0.000162795186
 78       0.000109176192
 79      -0.000142775018
 80       0.000003355469
 81       0.000005046733
 82       0.000007079534
 83       0.000001558268
 84       0.000001875406
 85       0.000034674080
 86       0.000312464966
 87       0.000110253803
 88       0.000006880057
 89       0.000028954706
 90      -0.001243767405
 91       0.002393294526
 92       0.000112002376
 93       0.000473080107
 94       0.000014379653
 95      -0.000076605759
 96      -0.000081410810
 97      -0.000055609222
 98      -0.000081000695
 99      -0.000064095455
100      -0.000914801971
101      -0.000030022796
102       0.000244820568
103      -0.000163301001
104       0.002917437118
105      -0.001203269460
106      -0.000552184288
107       0.004249247605
108       0.000035693913
109       0.000032892376
110      -0.000232013432
111       0.000030971174
112       0.000264636770
113       0.000042265951
114       0.000456869658
115      -0.000158062902
116      -0.000018417858
117       0.000063888490
118      -0.001519173480
119       0.001985188334
120       0.000038494919
121      -0.000809663444
122       0.000025881217
123      -0.000052277273
124      -0.000053713521
125      -0.000007719126
126       0.000032203039
127       0.000020132796
128       0.000249705197
129      -0.000089180767
130      -0.000044539904
131      -0.000044812484
132      -0.000784216449
133      -0.000421400462
134       0.000479656561
135       0.000329328082
136      -0.000016147184
137      -0.000004367697
138       0.000026059015
139       0.000023401586
140      -0.000055102606
141       0.000013783554
142       0.000083947625
143       0.000028632707
144       0.000010643901
145      -0.000010680294
146      -0.001327745373
147      -0.000404018070
148       0.000735910840
149      -0.000326930854
150       0.000004611276
151       0.000024034029
152       0.000032186084
153       0.000008271761
154      -0.000001504848
155       0.000000403334
156      -0.000002899281
157       0.000017878250
158       0.000020378234
159      -0.000003885673
160       0.000379914228
161      -0.000654397265
162      -0.000146052920
163       0.000146654621
164       0.000000435456
165       0.000025330077
166      -0.000010262622
167       0.000002462720
168       0.000009249792
169      -0.000006984602
170      -0.000035463347
171      -0.000013366919
172      -0.000007181693
173       0.000007126373
174       0.001128163947
175      -0.000325587859
176      -0.000205411465
177       0.000252478973
178      -0.000009071808
179      -0.000007082271
180      -0.000003358818
181       0.000003587580
182      -0.000004734816
183       0.000040278097
184       0.000032507884
185       0.000306003069
186      -0.000259933559
187      -0.000591132835
188       0.007881355734
189       0.007896263597
190      -0.003075223265
191      -0.008781189049
192      -0.000217090676
193       0.000031114214
194       0.000063859231
195      -0.000374319914
196      -0.000125951304
197       0.000000897959
198       0.000021566215
199      -0.000016636514
200       0.000006819703
201      -0.000001337059
202       0.000082493935
203       0.000388400361
204      -0.000543894456
205       0.000234289797
206       0.000003834591
207      -0.000005373796
208      -0.000002575077
209       0.000010684747
210      -0.000000933032
211       0.000017152663
212       0.000694795780
213      -0.000029606235
214      -0.000036908993
215      -0.000065240527
216       0.000083174389
217       0.000035136551
218      -0.000086664868
219       0.000006246287
220      -0.000001686030
221       0.000084623501
222       0.001510476647
223      -0.000039378820
224       0.000071369051
225       0.000007419814
226       0.000100437170
227      -0.000028197093
228      -0.000000102880
229      -0.000012115288
230      -0.000032378074
231      -0.000019938016
232      -0.000320385462
233       0.000016657437
234       0.000007748664
235      -0.000006801681
236      -0.000016485158
237      -0.000045056535
238       0.000030453431
239       0.000003953921
240       0.000000865965
241      -0.000002373251
242       0.000066367594
243       0.000009260033
244      -0.000002598086
245      -0.000002654559
246       0.000185868726
247       0.000584002525
248      -0.000039841202
249      -0.000039042556
250       0.000009630078
251      -0.000166548481
252       0.000200908710
253      -0.000030954772
254       0.000003491855
255       0.000029398647
256      -0.000438241440
257       0.000368096883
258      -0.000128088563
259      -0.001736287172
260       0.000200677271
 Sym=     1a
 Ene= -1.91704905985565E+01
 Spin= Alpha
 Occup= 2.000000
  1      -0.000007350725
  2       0.000008871334
  3       0.000001785846
  4       0.000001649481
  5      -0.000002982556
  6      -0.000066065224
  7       0.000007534320
  8      -0.000028761218
  9      -0.000000792895
 10       0.000001334447
 11      -0.000002774773
 12      -0.000002912541
 13      -0.000001368614
 14       0.000004914302
 15      -0.000026438076
 16      -0.000020416055
 17       0.000002590922
 18       0.000002662163
 19       0.000003896945
 20       0.000123188273
 21       0.000016792263
 22       0.000006565666
 23      -0.000031318727
 24      -0.000000058637
 25      -0.000004888554
 26       0.000000952151
 27      -0.000000269869
 28      -0.000001913544
 29      -0.542178813209
 30      -0.016972013849
 31       0.000404423120
 32      -0.001099273455
 33       0.000508107492
 34       0.018539394418
 35      -0.003974954903
 36       0.005904700532
 37      -0.002000005510
 38      -0.000409727763
 39       0.000206227133
 40      -0.000165678441
 41      -0.000059753269
 42      -0.000781461619
 43       0.834575051774
 44       0.025571371381
 45      -0.001142748493
 46      -0.001021728182
 47       0.001090484676
 48      -0.024815505855
 49       0.006607277427
 50       0.004433365050
 51      -0.005399601364
 52       0.000075303581
 53       0.000693918341
 54       0.000354231967
 55      -0.000363484803
 56      -0.000473052296
 57      -0.000000819917
 58      -0.000005486160
 59       0.000001519285
 60       0.000002274698
 61      -0.000002774431
 62       0.000020215961
 63       0.000003603268
 64      -0.000057197056
 65       0.000012889781
 66      -0.000000148036
 67      -0.000000360350
 68       0.000000155006
 69      -0.000001686022
 70      -0.000009664869
 71       0.000027752023
 72      -0.000054505079
 73      -0.000115556950
 74      -0.000231292841
 75       0.000187409029
 76       0.002693220289
 77       0.004965145242
 78       0.017290569057
 79      -0.012562367014
 80      -0.000108112240
 81       0.000277435869
 82       0.000082728483
 83      -0.000105936052
 84      -0.000403563066
 85      -0.000006979863
 86      -0.000070033303
 87      -0.000023590770
 88      -0.000025699916
 89       0.000028575501
 90       0.000127409312
 91       0.000006648882
 92      -0.000534699180
 93       0.000243412809
 94      -0.000014393447
 95       0.000038715718
 96      -0.000001294850
 97      -0.000025738309
 98      -0.000057422285
 99       0.000007920746
100       0.000057942683
101      -0.000007398386
102      -0.000017030788
103      -0.000004104879
104      -0.000342538734
105      -0.000030069244
106       0.000273759523
107       0.000032599309
108       0.000001731029
109       0.000003850591
110       0.000003572910
111      -0.000005857720
112       0.000001649875
113       0.000002110682
114       0.000001458289
115       0.000001019064
116      -0.000027556635
117       0.000019594077
118      -0.000073132928
119       0.000502601132
120       0.003352967721
121      -0.002218187289
122       0.000025487994
123      -0.000050068795
124      -0.000004413181
125       0.000028661933
126       0.000069736790
127      -0.000020959720
128      -0.000110183725
129       0.000055431946
130      -0.000071766572
131       0.000014641840
132       0.001186040961
133      -0.001684652287
134       0.003072222825
135      -0.001151201915
136      -0.000022031482
137      -0.000002048468
138      -0.000015953157
139       0.000000527493
140      -0.000032416241
141      -0.000000736116
142      -0.000046600531
143      -0.000096944561
144      -0.000020815924
145       0.000055417925
146       0.000186159040
147       0.003464592282
148       0.001445883195
149      -0.002266216178
150      -0.000018598158
151      -0.000003923478
152      -0.000000924542
153       0.000016242763
154      -0.000024719957
155       0.000015924388
156       0.000153184439
157      -0.000094953406
158      -0.000067206733
159       0.000080682986
160      -0.008552219718
161      -0.005218473436
162      -0.002795710305
163       0.003753658549
164      -0.000021441064
165       0.000076296356
166      -0.000063853023
167      -0.000111682313
168      -0.000081303108
169      -0.000022393623
170      -0.000271017123
171      -0.000028228187
172      -0.000073857532
173       0.000057923628
174       0.008441464967
175       0.004665036178
176      -0.006773651275
177       0.002203666824
178      -0.000020820090
179       0.000082686662
180      -0.000007438163
181      -0.000072314896
182      -0.000095605608
183      -0.000002558815
184      -0.000007085357
185       0.000005613354
186       0.000010761184
187       0.000009641765
188       0.000208408540
189       0.000056800665
190       0.000216848326
191      -0.000088158076
192      -0.000003490676
193      -0.000002590043
194       0.000006086171
195      -0.000001132955
196      -0.000003920255
197       0.000011432303
198       0.000039027862
199      -0.000040543935
200       0.000102141372
201      -0.000042333724
202      -0.000578661718
203      -0.001816479214
204      -0.014624974686
205       0.009583604970
206      -0.000117168175
207       0.000327408688
208      -0.000016712833
209      -0.000228461415
210      -0.000434719778
211      -0.000012245428
212      -0.000175317435
213       0.000019525991
214       0.000014664950
215       0.000001327581
216      -0.000006051715
217       0.000196576391
218      -0.000025359801
219       0.000007816292
220      -0.000011446442
221      -0.000001156598
222       0.000035891310
223       0.000001255881
224      -0.000009121084
225       0.000001620357
226       0.000090746378
227       0.000356693641
228       0.000053103062
229      -0.000053615194
230       0.000009843571
231      -0.000119306830
232      -0.000239543533
233      -0.000093399181
234      -0.000023728449
235       0.000052140656
236       0.000189695051
237      -0.000749873434
238       0.000157590275
239      -0.000065958238
240      -0.000021669666
241      -0.000274600161
242       0.000995558155
243      -0.000227541464
244       0.000090171869
245       0.000036684712
246       0.000003857433
247       0.000009492104
248      -0.000002197313
249      -0.000000021862
250      -0.000000152878
251      -0.000009014917
252      -0.000009646760
253      -0.000000041469
254      -0.000000261895
255       0.000000998898
256      -0.000001607689
257       0.000016749465
258      -0.000002829015
259       0.000002188275
260       0.000003510332
 Sym=     1a
 Ene= -1.91704063544952E+01
 Spin= Alpha
 Occup= 2.000000
  1      -0.000017204986
  2       0.000018641336
  3      -0.000005786975
  4       0.000006169949
  5      -0.000001737588
  6      -0.000085837958
  7       0.000035028385
  8      -0.000038927106
  9      -0.000014525605
 10       0.000002036581
 11       0.000003201971
 12      -0.000006591962
 13       0.000000306860
 14       0.000001600434
 15      -0.000009045090
 16      -0.000009407187
 17       0.000003244206
 18       0.000000615873
 19      -0.000002388293
 20       0.000078014870
 21       0.000006313358
 22       0.000023688636
 23       0.000001139601
 24      -0.000001289598
 25       0.000000933885
 26      -0.000001048008
 27      -0.000000076261
 28       0.000000459923
 29      -0.834535734395
 30      -0.024764763270
 31       0.000731636873
 32      -0.001484683728
 33       0.000612035208
 34       0.019394866420
 35      -0.001795071549
 36       0.006377785543
 37      -0.003174081348
 38      -0.000043384013
 39       0.000113462149
 40      -0.000547529570
 41      -0.000564866024
 42      -0.000051220268
 43      -0.542118351769
 44      -0.015728924581
 45       0.000759146846
 46       0.000501284901
 47      -0.000614672067
 48       0.010193266143
 49      -0.001196718681
 50      -0.003036185170
 51       0.002340714844
 52       0.000121937672
 53       0.000034143284
 54      -0.000432497769
 55      -0.000502490705
 56       0.000251556071
 57       0.000003410487
 58       0.000028776035
 59      -0.000001429983
 60       0.000002637336
 61       0.000007436640
 62      -0.000118870142
 63      -0.000038345379
 64      -0.000015337147
 65      -0.000080832451
 66       0.000001690335
 67      -0.000004567337