
                                 *****************
                                 * O   R   C   A *
                                 *****************

                                            #,                                       
                                            ###                                      
                                            ####                                     
                                            #####                                    
                                            ######                                   
                                           ########,                                 
                                     ,,################,,,,,                         
                               ,,#################################,,                 
                          ,,##########################################,,             
                       ,#########################################, ''#####,          
                    ,#############################################,,   '####,        
                  ,##################################################,,,,####,       
                ,###########''''           ''''###############################       
              ,#####''   ,,,,##########,,,,          '''####'''          '####       
            ,##' ,,,,###########################,,,                        '##       
           ' ,,###''''                  '''############,,,                           
         ,,##''                                '''############,,,,        ,,,,,,###''
      ,#''                                            '''#######################'''  
     '                                                          ''''####''''         
             ,#######,   #######,   ,#######,      ##                                
            ,#'     '#,  ##    ##  ,#'     '#,    #''#        ,####,    ,#,          
            ##       ##  ##   ,#'  ##            #'  '#       #'       ,# #          
            ##       ##  #######   ##           ,######,      #####,      #          
            '#,     ,#'  ##    ##  '#,     ,#' ,#      #,     #,   #      #          
             '#######'   ##     ##  '#######'  #'      '#     '####' #    #          



                #########################################################
                #                        -***-                          #
                #          Department of theory and spectroscopy        #
                #                                                       #
                #                      Frank Neese                      #
                #                                                       #
                #     Directorship, Architecture, Infrastructure        #
                #                    SHARK, DRIVERS                     #
                #        Core code/Algorithms in most modules           #
                #                                                       #
                #        Max Planck Institute fuer Kohlenforschung      #
                #                Kaiser Wilhelm Platz 1                 #
                #                 D-45470 Muelheim/Ruhr                 #
                #                      Germany                          #
                #                                                       #
                #                  All rights reserved                  #
                #                        -***-                          #
                #########################################################


                         Program Version 6.1.1  -  RELEASE   -
                                (GIT: $487d211c$)
                          ($2025-11-21 10:33:24 +0100$)
                                                                         
                                  - NO-DMRG VERSION -                    
                                                                         


 With contributions from (in alphabetic order):
[Max-Planck-Institut fuer Kohlenforschung]                               
  Daniel Aravena         : Magnetic Suceptibility                        
  Michael Atanasov       : Ab Initio Ligand Field Theory (pilot matlab implementation)
  Alexander A. Auer      : GIAO ZORA, VPT2 properties, NMR spectrum      
  Ute Becker             : All parallelization in ORCA, NUMFREQ, NUMCALC 
  Giovanni Bistoni       : ED, misc. LED, open-shell LED, HFLD           
  Dmytro Bykov           : pre 5.0 version of the SCF Hessian            
  Marcos Casanova-Páez   : Triplet and SCS-CIS(D). UHF-(DLPNO)-IP/EA/STEOM-CCSD. UHF-CVS-IP/STEOM-CCSD   
  Vijay G. Chilkuri      : MRCI spin determinant printing, contributions to CSF-ICE 
  Pauline Colinet        : FMM embedding                                 
  Dipayan Datta          : RHF DLPNO-CCSD density                        
  Achintya Kumar Dutta   : EOM-CC, STEOM-CC                              
  Nicolas Foglia         : Exact transition moments, OPA infrastructure, MCD improvements    
  Dmitry Ganyushin       : Spin-Orbit,Spin-Spin,Magnetic field MRCI      
  Miquel Garcia-Rates    : C-PCM and meta-GGA Hessian, CCSD/C-PCM, Gaussian charge scheme 
  Tiago L. C. Gouveia    : GS-ROHF, GS-ROCIS                             
  Yang Guo               : DLPNO-NEVPT2, F12-NEVPT2, CIM, IAO-localization        
  Andreas Hansen         : Spin unrestricted coupled pair/coupled cluster methods 
  Ingolf Harden          : AUTO-CI MPn and infrastructure                
  Benjamin Helmich-Paris : MC-RPA, TRAH-(SCF,CASSCF), AVAS, COSX integrals, SCF dyn. polar., MC-PDFT, srDFT 
  Lee Huntington         : MR-EOM, pCC                                   
  Robert Izsak           : Overlap fitted RIJCOSX, COSX-SCS-MP3, EOM     
  Riya Kayal             : Wick's Theorem for AUTO-CI, AUTO-CI UHF-CCSDT 
  Emily Kempfer          : AUTO-CI RHF CISDT and CCSDT, approximate NEVPT4
  Christian Kollmar      : KDIIS, OOCD, Brueckner-CCSD(T), CCSD density, CASPT2, CASPT2-K, improved NEVPT2 
  Axel Koslowski         : Symmetry handling                             
  Simone Kossmann        : meta-GGA functionals, TD-DFT gradient, OOMP2, (MP2 Hessian; deprecated post 5.0) 
  Lucas Lang             : DCDCAS, Hyperfine gauge corrections, ICE-SOC+SSC
  Marvin Lechner         : AUTO-CI (C++ implementation), FIC-MRCC        
  Spencer Leger          : CASSCF response                               
  Dagmar Lenk            : GEPOL surface, SMD, ORCA-2-JSON               
  Dimitrios Liakos       : Extrapolation schemes; Compound Job, Property file
  Dimitrios Manganas     : Further ROCIS development; embedding schemes. LFT, Crystal Embedding 
  Dimitrios Pantazis     : SARC Basis sets                               
  Anastasios Papadopoulos: AUTO-CI, single reference methods and gradients 
  Taras Petrenko         : pre 6.0 DFT Hessian and TD-DFT gradient,  ECA, NRVS 
  Petra Pikulova         : Analytic Raman intensities                    
  Peter Pinski           : DLPNO-MP2, DLPNO-MP2 Gradient                 
  Shashank Vittal Rao    : ES-AILFT, MagRelax                            
  Christoph Reimann      : Effective Core Potentials                     
  Marius Retegan         : Local ZFS, SOC                                
  Christoph Riplinger    : Optimizer, TS searches, QM/MM, DLPNO-CCSD(T), (RO)-DLPNO pert. Triples 
  Michael Roemelt        : Original ROCIS implementation, recursive CI coupling coefficients
  Masaaki Saitow         : Open-shell DLPNO-CCSD energy and density      
  Barbara Sandhoefer     : DKH picture change effects                    
  Yorick L. A. Schmerwitz: GMF and freeze-and-release deltaSCF, NEB S-IDPP initial path                    
  Kantharuban Sivalingam : CASSCF convergence/infrastructure, NEVPT2, NEVPT3, NEVPT4(SD), FIC-MRCI and CEPA variants
  Bernardo de Souza      : ESD, SOC TD-DFT                               
  Georgi L. Stoychev     : AutoAux, RI-MP2 NMR, DLPNO-MP2 response, X2C  
  Van Anh Tran           : RI-MP2 g-tensors                              
  Willem Van den Heuvel  : Paramagnetic NMR                              
  Zikuan Wang            : NOTCH, Electric field optimization            
  Frank Wennmohs         : Technical directorship and infrastructure     
  Hang Xu                : AUTO-CI-Response properties                   
                                                                         
[FACCTs GmbH]                                                            
  Markus Bursch, Nicolas Foglia, Miquel Garcia-Rates, Ingolf Harden, Hagen Neugebauer, Anastasios Papadopoulos, 
  Christoph Riplinger, Bernardo de Souza, Georgi L. Stoychev                                                    
                                                                 
  APM, various basis sets, CI-OPT, improved COSX, DLPNO-Multilevel,           
  DOCKER, DRACO, updates on ESD, Fragmentator, GOAT, IRC, LR-CPCM, L-BFGS, MBIS, meta-GGA TD-DFT gradient, ML-optimized integration grids, 
  MM, NACMEs, nearIR, NEB, NEB-TS, NL-DFT gradient (VV10), 2- and 3-layer-ONIOM, interface openCOSMO-RS, QMMM,   
  Crystal-QMMM, RESP, rigid body optimization, SF, symmetry and pop. for TD-DFT, various functionals, SOLVATOR                                   
                                                                         
[Other institutions]                                                     
  V. Asgeirsson          : NEB                                           
  Christoph Bannwarth    : sTDA-DFT, sTD-DFT, PBEh-3c, B97-3c, D3        
  Giovanni Bistoni       : ETS/NOCV, ADLD/ADEX, COVALED                  
  Martin Brehm           : Molecular dynamics                            
  Ronald Cardenas        : ETS/NOCV                                      
  Martina Colucci        : COVALED                                       
  Sebastian Ehlert       : rSCAN, r2SCAN, r2SCAN-3c, D4, dhf basis sets  
  Marvin Friede          : D4 for Fr, Ra, Ac-Lr                          
  Lars Goerigk           : TD-DFT with DH, B97 family of functionals     
  Stefan Grimme          : VdW corrections, initial TS optimization, DFT functionals, gCP, sTDA/sTD-DF 
  Waldemar Hujo          : DFT-NL                                        
  H. Jonsson             : NEB                                           
  Holger Kruse           : gCP                                           
  Marcel Mueller         : wB97X-3c, vDZP basis set                      
  Hagen Neugebauer       : wr2SCAN, Native XTB                           
  Gianluca Regni         : ADLD/ADEX                                     
  Tobias Risthaus        : pre 6.0 range-separated hybrid DFT and stability analysis
  Lukas Wittmann         : regularized MP2, r2SCAN double-hybrids, wr2SCAN        
                                                                         
We gratefully acknowledge several colleagues who have allowed us to      
interface, adapt or use parts of their codes:                            
  Ed Valeev, F. Pavosevic, A. Kumar             : LibInt (2-el integral package), F12 methods 
  Garnet Chan, S. Sharma, J. Yang, R. Olivares  : DMRG                   
  Ulf Ekstrom                                   : XCFun DFT Library      
  Mihaly Kallay                                 : mrcc  (arbitrary order and MRCC methods)
  Frank Weinhold                                : gennbo (NPA and NBO analysis)           
  Simon Mueller                                 : openCOSMO-RS                            
  Christopher J. Cramer and Donald G. Truhlar   : smd solvation model                     
  S Lehtola, MJT Oliveira, MAL Marques          : LibXC Library                           
  Liviu Ungur et al                             : ANISO software                          


 Your calculation uses the libint2 library for the computation of 2-el integrals
 For citations please refer to: http://libint.valeyev.net

 Your ORCA version has been built with support for libXC version: 7.0.0
 For citations please refer to: https://libxc.gitlab.io

 This ORCA versions uses:
   CBLAS   interface :  Fast vector & matrix operations
   LAPACKE interface :  Fast linear algebra routines
   SCALAPACK package :  Parallel linear algebra routines
   Shared memory     :  Shared parallel matrices
   BLAS/LAPACK       :  OpenBLAS 0.3.29  USE64BITINT DYNAMIC_ARCH NO_AFFINITY Haswell SINGLE_THREADED
        Core in use  :  Haswell
   Copyright (c) 2011-2014, The OpenBLAS Project


  ***********************************
  * Starting time: Sat Mar 28 20:00:37 2026
  * Host name:     4491f97e0b89
  * Process ID:    46
  * Working dir.:  /kaggle/working
  ***********************************

NOTE: MaxCore=3000 MB was set to SCF,MP2,MDCI,CIPSI,MRCI,RASCI and CIS
      => If you want to overwrite this, your respective input block should be placed after the MaxCore statement
Your calculation utilizes the atom-pairwise dispersion correction
with the Becke-Johnson damping scheme (D3BJ)


Your calculation utilizes the SMD solvation module
Please cite in your paper:
Marenich, A. V.; Cramer, C. J.; Truhlar, D. G. J. Phys. Chem. B 2009, 113, 6378 

Warning: RI is on but no J-basis has been assigned. Assigning Def2/J (nothing to worry about!)
================================================================================

----- Orbital basis set information -----
Your calculation utilizes the basis: 6-31G(d,p)
   H-He, Li-Ne : W. J. Hehre, R. Ditchfield and J.A. Pople, J. Chem. Phys. 56, 2257 (1972).
                 Note: He and Ne are unpublished basis sets taken from the Gaussian program.
                 Note: Li and B from J. D. Dill and J. A. Pople, J. Chem. Phys. 62, 2921 (1975).
   Na - Ar     : M. M. Francl, W. J. Pietro, W. J. Hehre, J. S. Binkley, M. S. Gordon, 
                 D. J. DeFrees and J. A. Pople, J. Chem. Phys. 77, 3654 (1982).
   K - Zn      : V. A. Rassolov, J. A. Pople, M. A. Ratner, and T. L. Windus, J. Chem. Phys. 109, 1223 (1998).

----- AuxJ basis set information -----
Your calculation utilizes the auxiliary basis: def2/J
   H-Rn: F. Weigend, Phys. Chem. Chem. Phys. 8, 1057 (2006).
   Fr-Lr: K. Eichkorn, F. Weigend, O. Treutler, R. Ahlrichs; Theor. Chem. Acc. 97, 119 (1997).

================================================================================
                                        WARNINGS
                       Please study these warnings very carefully!
================================================================================


WARNING: Geometry Optimization
  ===> : Switching off AutoStart
         For restart on a previous wavefunction, please use MOREAD

================================================================================
                                       INPUT FILE
================================================================================
NAME = /kaggle/working/Tyr-1/Tyr_InterFrag.inp
|  1> 
|  2> !RKS B3LYP 6-31G(d,p) TightSCF Opt D3BJ
|  3>  
|  4> %pal nprocs 2 end
|  5> %maxcore 3000
|  6> 
|  7> %cpcm
|  8>   smd true
|  9>   SMDsolvent "WATER"
| 10>   end
| 11> 
| 12> %scf
| 13>   MaxIter 1000
| 14>   SOSCF Start 0.00033
| 15>   end
| 16> end
| 17> 
| 18> %output
| 19>   PrintLevel Normal
| 20>   Print[ P_OrbEn ] 2        # print ALL orbital energies (not just up to LUMO+9) :contentReference[oaicite:10]{index=10}
| 21>   XYZFile true              # writes basename.xyz (handy for reuse) :contentReference[oaicite:11]{index=11}
| 22>   end
| 23> 
| 24> *xyz 0 1
| 25> O       -1.772700000     -1.631300000     -0.993100000
| 26> O        4.218300000     -0.635100000     -0.394700000
| 27> O       -3.480100000     -1.158400000      0.423400000
| 28> N       -3.238700000      1.494700000     -0.235100000
| 29> C       -1.049300000      1.021000000      0.763300000
| 30> C       -2.047900000      0.655300000     -0.345800000
| 31> C        0.361800000      0.577400000      0.452900000
| 32> C        0.780300000     -0.679800000      0.855300000
| 33> C        1.207700000      1.437300000     -0.227600000
| 34> C       -2.519700000     -0.784600000     -0.237800000
| 35> C        2.082700000     -1.089100000      0.569000000
| 36> C        2.510100000      1.028000000     -0.514100000
| 37> C        2.947600000     -0.235300000     -0.115800000
| 38> H       -1.363100000      0.594500000      1.726100000
| 39> H       -1.032200000      2.108900000      0.919000000
| 40> H       -1.624600000      0.813500000     -1.344500000
| 41> H        0.115800000     -1.351200000      1.391400000
| 42> H        0.875200000      2.421700000     -0.544000000
| 43> H       -2.977700000      2.473700000     -0.348600000
| 44> H       -3.629700000      1.419000000      0.703800000
| 45> H        2.411400000     -2.075400000      0.885300000
| 46> H        3.179000000      1.697300000     -1.048200000
| 47> H       -2.091200000     -2.556800000     -0.928200000
| 48> H        4.349400000     -1.533900000     -0.046700000
| 49> *
| 50> 
| 51>                          ****END OF INPUT****
================================================================================

                       *****************************
                       * Geometry Optimization Run *
                       *****************************

Geometry optimization settings:
Update method            Update   .... BFGS
Choice of coordinates    CoordSys .... (2022) Redundant Internals
Initial Hessian          InHess   .... Almloef's Model
Max. no of cycles        MaxIter  .... 72

Convergence Tolerances:
Energy Change            TolE     ....  5.0000e-06 Eh
Max. Gradient            TolMAXG  ....  3.0000e-04 Eh/bohr
RMS Gradient             TolRMSG  ....  1.0000e-04 Eh/bohr
Max. Displacement        TolMAXD  ....  4.0000e-03 bohr
RMS Displacement         TolRMSD  ....  2.0000e-03 bohr
Strict Convergence                .... False

------------------------------------------------------------------------------
                        ORCA OPTIMIZATION COORDINATE SETUP
------------------------------------------------------------------------------

The optimization will be done in redundant internal coordinates (2022)
Making redundant internal coordinates   ...  (2022 redundants) done
Evaluating the initial hessian          ...  (Almloef) done
Evaluating the coordinates              ...  done
Calculating the B-matrix                .... done
Calculating the G-matrix                .... done
The number of degrees of freedom        ....  111

    -----------------------------------------------------------------
                    Redundant Internal Coordinates


    -----------------------------------------------------------------
         Definition                    Initial Value    Approx d2E/dq
    -----------------------------------------------------------------
      1. B(C   5,C   4)                  1.5366         0.364669   
      2. B(C   5,N   3)                  1.4611         0.430942   
      3. B(C   6,C   4)                  1.5114         0.399992   
      4. B(C   7,C   6)                  1.3848         0.636890   
      5. B(C   8,C   6)                  1.3849         0.636522   
      6. B(C   9,O   2)                  1.2245         1.028013   
      7. B(C   9,O   0)                  1.3585         0.628363   
      8. B(C   9,C   5)                  1.5191         0.388881   
      9. B(C  10,C   7)                  1.3949         0.613655   
     10. B(C  11,C   8)                  1.3949         0.613563   
     11. B(C  12,C  11)                  1.3950         0.613464   
     12. B(C  12,C  10)                  1.3950         0.613463   
     13. B(C  12,O   1)                  1.3610         0.622520   
     14. B(H  13,C   4)                  1.0988         0.348648   
     15. B(H  14,C   4)                  1.0991         0.348237   
     16. B(H  15,C   5)                  1.0962         0.352016   
     17. B(H  16,C   7)                  1.0862         0.365217   
     18. B(H  17,C   8)                  1.0861         0.365237   
     19. B(H  18,N   3)                  1.0195         0.417819   
     20. B(H  19,N   3)                  1.0199         0.417292   
     21. B(H  20,C  10)                  1.0867         0.364517   
     22. B(H  21,C  11)                  1.0866         0.364655   
     23. B(H  22,O   0)                  0.9809         0.481493   
     24. B(H  23,O   1)                  0.9727         0.496267   
     25. A(C   9,O   0,H  22)          111.8844         0.366108   
     26. A(C  12,O   1,H  23)          108.9028         0.367420   
     27. A(C   5,N   3,H  18)          109.5471         0.335396   
     28. A(C   5,N   3,H  19)          109.8501         0.335326   
     29. A(H  18,N   3,H  19)          105.7777         0.299828   
     30. A(H  13,C   4,H  14)          105.3377         0.287855   
     31. A(C   6,C   4,H  13)          109.4305         0.326244   
     32. A(C   5,C   4,H  14)          110.3607         0.321269   
     33. A(C   5,C   4,H  13)          110.7621         0.321331   
     34. A(C   6,C   4,H  14)          107.7626         0.326181   
     35. A(C   5,C   4,C   6)          112.8718         0.366110   
     36. A(N   3,C   5,C   9)          106.6211         0.372601   
     37. A(C   9,C   5,H  15)          108.7541         0.325250   
     38. A(C   4,C   5,H  15)          111.8579         0.321838   
     39. A(N   3,C   5,H  15)          107.5077         0.328816   
     40. A(C   4,C   5,C   9)          112.0937         0.364348   
     41. A(N   3,C   5,C   4)          109.7698         0.368505   
     42. A(C   4,C   6,C   7)          119.2710         0.403386   
     43. A(C   7,C   6,C   8)          121.4588         0.438244   
     44. A(C   4,C   6,C   8)          119.2702         0.403345   
     45. A(C  10,C   7,H  16)          119.4159         0.353137   
     46. A(C   6,C   7,H  16)          121.3139         0.355369   
     47. A(C   6,C   7,C  10)          119.2699         0.435364   
     48. A(C  11,C   8,H  17)          119.4670         0.353132   
     49. A(C   6,C   8,H  17)          121.2577         0.355337   
     50. A(C   6,C   8,C  11)          119.2750         0.435307   
     51. A(O   0,C   9,O   2)          122.7702         0.470722   
     52. A(O   2,C   9,C   5)          124.8457         0.434278   
     53. A(O   0,C   9,C   5)          112.3636         0.397873   
     54. A(C   7,C  10,C  12)          120.0039         0.432439   
     55. A(C  12,C  10,H  20)          120.7211         0.353004   
     56. A(C   7,C  10,H  20)          119.2750         0.353023   
     57. A(C   8,C  11,C  12)          119.9931         0.432427   
     58. A(C  12,C  11,H  21)          120.3382         0.353027   
     59. A(C   8,C  11,H  21)          119.6686         0.353036   
     60. A(O   1,C  12,C  10)          119.9787         0.430720   
     61. A(C  10,C  12,C  11)          119.9993         0.432415   
     62. A(O   1,C  12,C  11)          120.0220         0.430720   
     63. D(C   9,C   5,N   3,H  19)     67.0105         0.015833   
     64. D(C   9,C   5,C   4,H  14)   -157.4227         0.010650   
     65. D(C   4,C   5,N   3,H  19)    -54.6175         0.015833   
     66. D(C   9,C   5,C   4,C   6)     81.9320         0.010650   
     67. D(N   3,C   5,C   4,H  13)     77.1267         0.010650   
     68. D(C   9,C   5,C   4,H  13)    -41.1642         0.010650   
     69. D(N   3,C   5,C   4,C   6)   -159.7772         0.010650   
     70. D(C   4,C   5,N   3,H  18)     61.1637         0.015833   
     71. D(N   3,C   5,C   4,H  14)    -39.1318         0.010650   
     72. D(C   9,C   5,N   3,H  18)   -177.2083         0.015833   
     73. D(H  15,C   5,N   3,H  18)    -60.7217         0.015833   
     74. D(C   7,C   6,C   4,H  14)    147.8794         0.011874   
     75. D(C   7,C   6,C   4,H  13)     33.8300         0.011874   
     76. D(C   8,C   6,C   4,C   5)     90.0014         0.011874   
     77. D(C   7,C   6,C   4,C   5)    -90.0032         0.011874   
     78. D(C   8,C   6,C   4,H  13)   -146.1654         0.011874   
     79. D(H  16,C   7,C   6,C   8)    179.8211         0.028164   
     80. D(H  16,C   7,C   6,C   4)     -0.1742         0.028164   
     81. D(C  10,C   7,C   6,C   8)      0.0054         0.028164   
     82. D(C  10,C   7,C   6,C   4)   -179.9899         0.028164   
     83. D(H  17,C   8,C   6,C   7)    179.8369         0.028130   
     84. D(H  17,C   8,C   6,C   4)     -0.1678         0.028130   
     85. D(C  11,C   8,C   6,C   7)      0.0028         0.028130   
     86. D(C  11,C   8,C   6,C   4)    179.9981         0.028130   
     87. D(O   2,C   9,C   5,N   3)    -31.8206         0.011255   
     88. D(O   0,C   9,C   5,H  15)     30.9152         0.011255   
     89. D(O   0,C   9,C   5,C   4)    -93.2907         0.011255   
     90. D(O   0,C   9,C   5,N   3)    146.5675         0.011255   
     91. D(C   5,C   9,O   0,H  22)   -179.1872         0.029026   
     92. D(O   2,C   9,C   5,C   4)     88.3211         0.011255   
     93. D(O   2,C   9,O   0,H  22)     -0.7604         0.029026   
     94. D(H  20,C  10,C   7,H  16)      0.1416         0.026026   
     95. D(H  20,C  10,C   7,C   6)    179.9609         0.026026   
     96. D(C  12,C  10,C   7,H  16)   -179.8319         0.026026   
     97. D(C  12,C  10,C   7,C   6)     -0.0127         0.026026   
     98. D(H  21,C  11,C   8,H  17)      0.1272         0.026017   
     99. D(H  21,C  11,C   8,C   6)    179.9642         0.026017   
    100. D(C  12,C  11,C   8,H  17)   -179.8407         0.026017   
    101. D(C  12,C  11,C   8,C   6)     -0.0037         0.026017   
    102. D(C  10,C  12,C  11,H  21)   -179.9713         0.026009   
    103. D(C  10,C  12,C  11,C   8)     -0.0036         0.026009   
    104. D(O   1,C  12,C  11,C   8)   -179.9821         0.026009   
    105. D(C  11,C  12,C  10,H  20)   -179.9613         0.026009   
    106. D(C  11,C  12,C  10,C   7)      0.0119         0.026009   
    107. D(O   1,C  12,C  10,H  20)      0.0171         0.026009   
    108. D(O   1,C  12,C  11,H  21)      0.0502         0.026009   
    109. D(O   1,C  12,C  10,C   7)    179.9903         0.026009   
    110. D(C  11,C  12,O   1,H  23)    179.9900         0.028449   
    111. D(C  10,C  12,O   1,H  23)      0.0116         0.028449   
    -----------------------------------------------------------------

Number of atoms                         .... 24
Number of degrees of freedom            .... 111


         *************************************************************
         *                GEOMETRY OPTIMIZATION CYCLE   1            *
         *************************************************************
---------------------------------
CARTESIAN COORDINATES (ANGSTROEM)
---------------------------------
  O     -1.772700   -1.631300   -0.993100
  O      4.218300   -0.635100   -0.394700
  O     -3.480100   -1.158400    0.423400
  N     -3.238700    1.494700   -0.235100
  C     -1.049300    1.021000    0.763300
  C     -2.047900    0.655300   -0.345800
  C      0.361800    0.577400    0.452900
  C      0.780300   -0.679800    0.855300
  C      1.207700    1.437300   -0.227600
  C     -2.519700   -0.784600   -0.237800
  C      2.082700   -1.089100    0.569000
  C      2.510100    1.028000   -0.514100
  C      2.947600   -0.235300   -0.115800
  H     -1.363100    0.594500    1.726100
  H     -1.032200    2.108900    0.919000
  H     -1.624600    0.813500   -1.344500
  H      0.115800   -1.351200    1.391400
  H      0.875200    2.421700   -0.544000
  H     -2.977700    2.473700   -0.348600
  H     -3.629700    1.419000    0.703800
  H      2.411400   -2.075400    0.885300
  H      3.179000    1.697300   -1.048200
  H     -2.091200   -2.556800   -0.928200
  H      4.349400   -1.533900   -0.046700

----------------------------
CARTESIAN COORDINATES (A.U.)
----------------------------
  NO LB      ZA    FRAG     MASS         X           Y           Z
   0 O     8.0000    0    15.999   -3.349918   -3.082710   -1.876687
   1 O     8.0000    0    15.999    7.971432   -1.200165   -0.745875
   2 O     8.0000    0    15.999   -6.576436   -2.189059    0.800110
   3 N     7.0000    0    14.007   -6.120256    2.824574   -0.444275
   4 C     6.0000    0    12.011   -1.982890    1.929410    1.442428
   5 C     6.0000    0    12.011   -3.869970    1.238338   -0.653467
   6 C     6.0000    0    12.011    0.683703    1.091128    0.855857
   7 C     6.0000    0    12.011    1.474553   -1.284636    1.616283
   8 C     6.0000    0    12.011    2.282222    2.716103   -0.430102
   9 C     6.0000    0    12.011   -4.761543   -1.482679   -0.449377
  10 C     6.0000    0    12.011    3.935733   -2.058101    1.075254
  11 C     6.0000    0    12.011    4.743402    1.942638   -0.971508
  12 C     6.0000    0    12.011    5.570157   -0.444653   -0.218830
  13 H     1.0000    0     1.008   -2.575886    1.123442    3.261856
  14 H     1.0000    0     1.008   -1.950575    3.985243    1.736658
  15 H     1.0000    0     1.008   -3.070049    1.537292   -2.540737
  16 H     1.0000    0     1.008    0.218830   -2.553398    2.629365
  17 H     1.0000    0     1.008    1.653888    4.576350   -1.028011
  18 H     1.0000    0     1.008   -5.627038    4.674616   -0.658759
  19 H     1.0000    0     1.008   -6.859139    2.681521    1.329989
  20 H     1.0000    0     1.008    4.556886   -3.921938    1.672975
  21 H     1.0000    0     1.008    6.007439    3.207432   -1.980811
  22 H     1.0000    0     1.008   -3.951795   -4.831652   -1.754044
  23 H     1.0000    0     1.008    8.219175   -2.898651   -0.088250

--------------------------------
INTERNAL COORDINATES (ANGSTROEM)
--------------------------------
 O      0   0   0     0.000000000000     0.00000000     0.00000000
 O      1   0   0     6.102669743645     0.00000000     0.00000000
 O      1   2   0     2.268330095026   130.06633827     0.00000000
 N      3   1   2     2.744236837447    89.16899326    73.96979264
 C      4   3   1     2.452481724703    78.11822444   298.10865765
 C      4   3   1     1.461113099661    62.25467784   332.83083406
 C      5   4   3     1.511400784041   143.76197311    91.35909399
 C      7   5   4     1.384781517063   119.27101343   250.85884456
 C      7   5   4     1.384938652071   119.27021702    70.86340887
 C      3   1   2     1.224450913675    30.23610878    56.84308407
 C      8   7   5     1.394897824215   119.26987003   180.01006563
 C      9   7   5     1.394938887550   119.27504229   179.99812795
 C      2   1   3     1.360993659059    31.94840594   328.64219974
 H      5   4   3     1.098797765742   100.17956790   306.59898070
 H      5   4   3     1.099118424011    83.12972536   202.17790484
 H      6   4   3     1.096180559944   107.50769246   129.08746082
 H      8   7   5     1.086159021507   121.31393027   359.82575186
 H      9   7   5     1.086143899306   121.25771434   359.83218316
 H      4   3   1     1.019531387452   167.84670698   283.13709202
 H      4   3   1     1.019874845263    70.95020119   206.84841431
 H     11   8   7     1.086681678322   119.27503748   179.96087598
 H     12   9   7     1.086578349683   119.66861376   179.96423231
 H      1   2  13     0.980920236309   117.79331007   220.47225230
 H      2   1   3     0.972693502600    90.94865035    94.49875859

---------------------------
INTERNAL COORDINATES (A.U.)
---------------------------
 O      0   0   0     0.000000000000     0.00000000     0.00000000
 O      1   0   0    11.532374501256     0.00000000     0.00000000
 O      1   2   0     4.286522660930   130.06633827     0.00000000
 N      3   1   2     5.185856069393    89.16899326    73.96979264
 C      4   3   1     4.634518808135    78.11822444   298.10865765
 C      4   3   1     2.761103609043    62.25467784   332.83083406
 C      5   4   3     2.856133560432   143.76197311    91.35909399
 C      7   5   4     2.616857822566   119.27101343   250.85884456
 C      7   5   4     2.617154764696   119.27021702    70.86340887
 C      3   1   2     2.313876891276    30.23610878    56.84308407
 C      8   7   5     2.635974872569   119.26987003   180.01006563
 C      9   7   5     2.636052471027   119.27504229   179.99812795
 C      2   1   3     2.571905285626    31.94840594   328.64219974
 H      5   4   3     2.076426853817   100.17956790   306.59898070
 H      5   4   3     2.077032810128    83.12972536   202.17790484
 H      6   4   3     2.071481051623   107.50769246   129.08746082
 H      8   7   5     2.052543088535   121.31393027   359.82575186
 H      9   7   5     2.052514511718   121.25771434   359.83218316
 H      4   3   1     1.926635107221   167.84670698   283.13709202
 H      4   3   1     1.927284148422    70.95020119   206.84841431
 H     11   8   7     2.053530766778   119.27503748   179.96087598
 H     12   9   7     2.053335503949   119.66861376   179.96423231
 H      1   2  13     1.853670605845   117.79331007   220.47225230
 H      2   1   3     1.838124332158    90.94865035    94.49875859

---------------------
BASIS SET INFORMATION
---------------------
There are 4 groups of distinct atoms

 Group   1 Type O   : 10s4p1d contracted to 3s2p1d pattern {631/31/1}
 Group   2 Type N   : 10s4p1d contracted to 3s2p1d pattern {631/31/1}
 Group   3 Type C   : 10s4p1d contracted to 3s2p1d pattern {631/31/1}
 Group   4 Type H   : 4s1p contracted to 2s1p pattern {31/1}

Atom   0O    basis set group =>   1
Atom   1O    basis set group =>   1
Atom   2O    basis set group =>   1
Atom   3N    basis set group =>   2
Atom   4C    basis set group =>   3
Atom   5C    basis set group =>   3
Atom   6C    basis set group =>   3
Atom   7C    basis set group =>   3
Atom   8C    basis set group =>   3
Atom   9C    basis set group =>   3
Atom  10C    basis set group =>   3
Atom  11C    basis set group =>   3
Atom  12C    basis set group =>   3
Atom  13H    basis set group =>   4
Atom  14H    basis set group =>   4
Atom  15H    basis set group =>   4
Atom  16H    basis set group =>   4
Atom  17H    basis set group =>   4
Atom  18H    basis set group =>   4
Atom  19H    basis set group =>   4
Atom  20H    basis set group =>   4
Atom  21H    basis set group =>   4
Atom  22H    basis set group =>   4
Atom  23H    basis set group =>   4
---------------------------------
AUXILIARY/J BASIS SET INFORMATION
---------------------------------
There are 4 groups of distinct atoms

 Group   1 Type O   : 12s5p4d2f1g contracted to 6s4p3d1f1g pattern {711111/2111/211/2/1}
 Group   2 Type N   : 12s5p4d2f1g contracted to 6s4p3d1f1g pattern {711111/2111/211/2/1}
 Group   3 Type C   : 12s5p4d2f1g contracted to 6s4p3d1f1g pattern {711111/2111/211/2/1}
 Group   4 Type H   : 5s2p1d contracted to 3s1p1d pattern {311/2/1}

Atom   0O    basis set group =>   1
Atom   1O    basis set group =>   1
Atom   2O    basis set group =>   1
Atom   3N    basis set group =>   2
Atom   4C    basis set group =>   3
Atom   5C    basis set group =>   3
Atom   6C    basis set group =>   3
Atom   7C    basis set group =>   3
Atom   8C    basis set group =>   3
Atom   9C    basis set group =>   3
Atom  10C    basis set group =>   3
Atom  11C    basis set group =>   3
Atom  12C    basis set group =>   3
Atom  13H    basis set group =>   4
Atom  14H    basis set group =>   4
Atom  15H    basis set group =>   4
Atom  16H    basis set group =>   4
Atom  17H    basis set group =>   4
Atom  18H    basis set group =>   4
Atom  19H    basis set group =>   4
Atom  20H    basis set group =>   4
Atom  21H    basis set group =>   4
Atom  22H    basis set group =>   4
Atom  23H    basis set group =>   4


           ************************************************************
           *        Program running with 2 parallel MPI-processes     *
           *              working on a common directory               *
           ************************************************************
------------------------------------------------------------------------------
                             ORCA STARTUP CALCULATIONS
                           -- RI-GTO INTEGRALS CHOSEN --
------------------------------------------------------------------------------
------------------------------------------------------------------------------
                   ___                                                        
                  /   \      - P O W E R E D   B Y -                         
                 /     \                                                     
                 |  |  |   _    _      __       _____    __    __             
                 |  |  |  | |  | |    /  \     |  _  \  |  |  /  |          
                  \  \/   | |  | |   /    \    | | | |  |  | /  /          
                 / \  \   | |__| |  /  /\  \   | |_| |  |  |/  /          
                |  |  |   |  __  | /  /__\  \  |    /   |      \           
                |  |  |   | |  | | |   __   |  |    \   |  |\   \          
                \     /   | |  | | |  |  |  |  | |\  \  |  | \   \       
                 \___/    |_|  |_| |__|  |__|  |_| \__\ |__|  \__/        
                                                                              
                      - O R C A' S   B I G   F R I E N D -                    
                                      &                                       
                       - I N T E G R A L  F E E D E R -                       
                                                                              
 v1 FN, 2020, v2 2021, v3 2022-2024                                           
------------------------------------------------------------------------------


----------------------
SHARK INTEGRAL PACKAGE
----------------------

Number of atoms                             ...     24
Number of basis functions                   ...    237
Number of shells                            ...    111
Maximum angular momentum                    ...      2
Integral batch strategy                     ... SHARK/LIBINT Hybrid
RI-J (if used) integral strategy            ... SPLIT-RIJ (Revised 2003 algorithm where possible)
Printlevel                                  ...      1
Contraction scheme used                     ... SEGMENTED contraction
Prescreening option                         ... SCHWARTZ
   Thresh                                   ... 2.500e-11
   Tcut                                     ... 2.500e-12
   Tpresel                                  ... 2.500e-12 
Coulomb Range Separation                    ... NOT USED
Exchange Range Separation                   ... NOT USED
Multipole approximations                    ... NOT USED
Finite Nucleus Model                        ... NOT USED
CABS basis                                  ... NOT available
Auxiliary Coulomb fitting basis             ... AVAILABLE
   # of basis functions in Aux-J            ...    758
   # of shells in Aux-J                     ...    250
   Maximum angular momentum in Aux-J        ...      4
Auxiliary J/K fitting basis                 ... NOT available
Auxiliary Correlation fitting basis         ... NOT available
Auxiliary 'external' fitting basis          ... NOT available

Checking pre-screening integrals            ... done (  0.0 sec) Dimension = 111
   => SHARK Basis and OBASIS are compatible. Storing Pre-screening
Shell pair information
Shell pair cut-off parameter TPreSel        ...   2.5e-12
Total number of shell pairs                 ...      6216
Shell pairs after pre-screening             ...      5130
Total number of primitive shell pairs       ...     31681
Primitive shell pairs kept                  ...     16234
          la=0 lb=0:   1555 shell pairs
          la=1 lb=0:   1865 shell pairs
          la=1 lb=1:    603 shell pairs
          la=2 lb=0:    640 shell pairs
          la=2 lb=1:    394 shell pairs
          la=2 lb=2:     73 shell pairs

Checking whether 4 symmetric matrices of dimension 237 fit in memory
:Max Core in MB      =   3000.00
 MB in use           =     10.38
 MB left             =   2989.62
 MB needed           =      0.86
 Data fit in memory  = YES
Calculating RI/J V-Matrix + Cholesky decomp.... done (  0.2 sec)
Calculating Nuclear repulsion               ... done (  0.0 sec) ENN=    775.957441126678 Eh

Diagonalization of the overlap matrix:
Smallest eigenvalue                        ... 4.531e-04
Time for diagonalization                   ...    0.029 sec
Threshold for overlap eigenvalues          ... 1.000e-07
Number of eigenvalues below threshold      ... 0
Time for construction of square roots      ...    0.006 sec
Total time needed                          ...    0.036 sec

-------------------
DFT GRID GENERATION
-------------------

General Integration Accuracy     IntAcc      ... 4.388
Radial Grid Type                 RadialGrid  ... OptM3 with GC (2021)
Angular Grid (max. ang.)         AngularGrid ... 4 (Lebedev-302)
Angular grid pruning method      GridPruning ... 4 (adaptive)
Weight generation scheme         WeightScheme... mBecke (2022)
Basis function cutoff            BFCut       ... 1.0000e-11
Integration weight cutoff        WCut        ... 1.0000e-14
Partially contracted basis set               ... off
Rotationally invariant grid construction     ... off
Angular grids for H and He will be reduced by one unit

Total number of grid points                  ...   113343
Total number of batches                      ...     1785
Average number of points per batch           ...       63
Average number of grid points per atom       ...     4723

--------------------
COSX GRID GENERATION
--------------------

GRIDX 1
-------
General Integration Accuracy     IntAcc      ... 3.816
Radial Grid Type                 RadialGrid  ... OptM3 with GC (2021)
Angular Grid (max. ang.)         AngularGrid ... 1 (Lebedev-50)
Angular grid pruning method      GridPruning ... 4 (adaptive)
Weight generation scheme         WeightScheme... mBecke (2022)
Basis function cutoff            BFCut       ... 1.0000e-11
Integration weight cutoff        WCut        ... 1.0000e-14
Partially contracted basis set               ... on
Rotationally invariant grid construction     ... off
Angular grids for H and He will be reduced by one unit

Total number of grid points                  ...    14392
Total number of batches                      ...      127
Average number of points per batch           ...      113
Average number of grid points per atom       ...      600
UseSFitting                                  ... on

GRIDX 2
-------
General Integration Accuracy     IntAcc      ... 4.020
Radial Grid Type                 RadialGrid  ... OptM3 with GC (2021)
Angular Grid (max. ang.)         AngularGrid ... 2 (Lebedev-110)
Angular grid pruning method      GridPruning ... 4 (adaptive)
Weight generation scheme         WeightScheme... mBecke (2022)
Basis function cutoff            BFCut       ... 1.0000e-11
Integration weight cutoff        WCut        ... 1.0000e-14
Partially contracted basis set               ... on
Rotationally invariant grid construction     ... off
Angular grids for H and He will be reduced by one unit

Total number of grid points                  ...    31413
Total number of batches                      ...      258
Average number of points per batch           ...      121
Average number of grid points per atom       ...     1309
UseSFitting                                  ... on

GRIDX 3
-------
General Integration Accuracy     IntAcc      ... 4.338
Radial Grid Type                 RadialGrid  ... OptM3 with GC (2021)
Angular Grid (max. ang.)         AngularGrid ... 3 (Lebedev-194)
Angular grid pruning method      GridPruning ... 4 (adaptive)
Weight generation scheme         WeightScheme... mBecke (2022)
Basis function cutoff            BFCut       ... 1.0000e-11
Integration weight cutoff        WCut        ... 1.0000e-14
Partially contracted basis set               ... on
Rotationally invariant grid construction     ... off
Angular grids for H and He will be reduced by one unit

Total number of grid points                  ...    68910
Total number of batches                      ...      551
Average number of points per batch           ...      125
Average number of grid points per atom       ...     2871
UseSFitting                                  ... on
Grids setup in   2.9 sec
Initializing property integral containers    ... done (  0.0 sec)

SHARK setup successfully completed in   3.8 seconds

Maximum memory used throughout the entire STARTUP-calculation: 38.6 MB


           ************************************************************
           *        Program running with 2 parallel MPI-processes     *
           *              working on a common directory               *
           ************************************************************
-------------------------------------------------------------------------------
                                 ORCA GUESS
                   Start orbitals & Density for SCF / CASSCF
-------------------------------------------------------------------------------

------------
SCF SETTINGS
------------
Hamiltonian:
 Density Functional     Method          .... DFT(GTOs)
 Exchange Functional    Exchange        .... B88
   X-Alpha parameter    XAlpha          ....  0.666667
   Becke's b parameter  XBeta           ....  0.004200
 Correlation Functional Correlation     .... LYP
 LDA part of GGA corr.  LDAOpt          .... VWN-5
 Gradients option       PostSCFGGA      .... off
 Hybrid DFT is turned on
   Fraction HF Exchange ScalHFX         ....  0.200000
   Scaling of DF-GGA-X  ScalDFX         ....  0.720000
   Scaling of DF-GGA-C  ScalDFC         ....  0.810000
   Scaling of DF-LDA-C  ScalLDAC        ....  1.000000
   Perturbative correction              ....  0.000000
   NL short-range parameter             ....  4.800000
 RI-approximation to the Coulomb term is turned on
   Number of AuxJ basis functions       .... 758
   RIJ-COSX (HFX calculated with COS-X)).... on


General Settings:
 Integral files         IntName         .... /kaggle/working/Tyr-1/Tyr_InterFrag
 Hartree-Fock type      HFTyp           .... RHF
 Total Charge           Charge          ....    0
 Multiplicity           Mult            ....    1
 Number of Electrons    NEL             ....   96
 Basis Dimension        Dim             ....  237
 Nuclear Repulsion      ENuc            ....    775.9574411267 Eh

Convergence Acceleration:
 AO-DIIS                CNVDIIS         .... on
   Start iteration      DIISMaxIt       ....    12
   Startup error        DIISStart       ....  0.200000
   # of expansion vecs  DIISMaxEq       ....     5
   Bias factor          DIISBfac        ....   1.050
   Max. coefficient     DIISMaxC        ....  10.000
 MO-DIIS                CNVKDIIS        .... off
 Trust-Rad. Augm. Hess. CNVTRAH         .... auto
   Auto Start mean grad. ratio tolernc. ....  1.125000
   Auto Start start iteration           ....    50
   Auto Start num. interpolation iter.  ....    10
   Max. Number of Micro iterations      ....    24
   Max. Number of Macro iterations      .... Maxiter - #DIIS iter
   Number of Davidson start vectors     ....     2
   Converg. threshold    (grad. norm)   ....   1.000e-05
   Grad. Scal. Fac. for Micro threshold ....   0.100
   Minimum threshold for Micro iter.    ....   1.000e-02
   NR start threshold (gradient norm)   ....   1.000e-04
   Initial trust radius                 ....   0.400
   Minimum AH scaling param. (alpha)    ....   1.000
   Maximum AH scaling param. (alpha)    .... 1000.000
   Quad. conv. algorithm                .... NR
   White noise on init. David. guess    .... on
   Maximum white noise                  ....   0.010
   Pseudo random numbers                .... off
   Inactive MOs                         .... canonical
   Orbital update algorithm             .... Taylor
   Preconditioner                       .... Diag
   Full preconditioner red. dimension   ....   250
 SOSCF                 CNVSOSCF           .... on
   Start iteration     SOSCFMaxIt         ....   150
   Startup grad/error  SOSCFStart         ....  0.000330
   Hessian update      SOSCFHessUp        .... L-BFGS
   Autom. constraints  SOSCFAutoConstrain .... off
 Level Shifting         CNVShift        .... on
   Level shift para.    LevelShift      ....    0.2500
   Turn off err/grad.   ShiftErr        ....    0.0010
 Zerner damping         CNVZerner       .... off
 Static damping         CNVDamp         .... on
   Fraction old density DampFac         ....    0.7000
   Max. Damping (<1)    DampMax         ....    0.9800
   Min. Damping (>=0)   DampMin         ....    0.0000
   Turn off err/grad.   DampErr         ....    0.1000

SCF Procedure:
 Maximum # iterations   MaxIter         ....  1000
 SCF integral mode      SCFMode         .... Direct
   Integral package                     .... SHARK and LIBINT hybrid scheme
 Reset frequency        DirectResetFreq ....    20
 Integral Threshold     Thresh          ....  2.500e-11 Eh
 Primitive CutOff       TCut            ....  2.500e-12 Eh

Convergence Tolerance:
 Convergence Check Mode ConvCheckMode   .... Total+1el-Energy
 Convergence forced     ConvForced      .... 0
 Energy Change          TolE            ....  1.000e-08 Eh
 1-El. energy change                    ....  1.000e-05 Eh
 Orbital Gradient       TolG            ....  1.000e-05
 Orbital Rotation angle TolX            ....  1.000e-05
 DIIS Error             TolErr          ....  5.000e-07

------------------------------
INITIAL GUESS: MODEL POTENTIAL
------------------------------
Loading Hartree-Fock densities                     ... done
Calculating cut-offs                               ... done
Initializing the effective Hamiltonian             ... done
Setting up the integral package (SHARK)            ... done
Starting the Coulomb interaction                   ... done (   0.2 sec)
Making the grid                                    ... done (   0.4 sec)
Mapping shells                                     ... done
Starting the XC term evaluation                    ... done (   0.2 sec)
  promolecular density results
     # of electrons  =     96.003073832
     EX              =    -80.736329116
     EC              =     -3.287406332
     EX+EC           =    -84.023735448
Transforming the Hamiltonian                       ... done (   0.0 sec)
Diagonalizing the Hamiltonian                      ... done (   0.0 sec)
Back transforming the eigenvectors                 ... done (   0.0 sec)
Now organizing SCF variables                       ... done
                      ------------------
                      INITIAL GUESS DONE (   0.9 sec)
                      ------------------
             **** ENERGY FILE WAS UPDATED (/kaggle/working/Tyr-1/Tyr_InterFrag.en.tmp) ****
Finished Guess after   1.2 sec
Maximum memory used throughout the entire GUESS-calculation: 15.1 MB


           ************************************************************
           *        Program running with 2 parallel MPI-processes     *
           *              working on a common directory               *
           ************************************************************

-------------------------------------------------------------------------------------------
                                      ORCA LEAN-SCF
                              memory conserving SCF solver
-------------------------------------------------------------------------------------------

--------------------
CPCM SOLVATION MODEL
--------------------
CPCM parameters:
  Epsilon                                         ...      78.3550
  Refrac                                          ...       1.3328
  Rsolv                                           ...       1.3000
  Surface type                                    ... GAUSSIAN VDW
  Discretization scheme                           ... Constant charge density
    Threshold for H atoms                         ...       5.0000 (charges/Ang^2)
    Threshold for non-H atoms                     ...       5.0000 (charges/Ang^2)
  Epsilon function type                           ...         CPCM
Solvent:                                          ... WATER
SMD-CDS solvent descriptors:
  Soln                                            ...       1.3328
  Soln25                                          ...       1.3323
  Sola                                            ...       0.0000
  Solb                                            ...       0.0000
  Solg                                            ...       0.0000
  Solc                                            ...       0.0000
  Solh                                            ...       0.0000
Radii:
  Scheme                                          ... Element-dependent radii
  Radius for O  used is    2.8724 Bohr (=   1.5200 Ang.)
  Radius for N  used is    3.5716 Bohr (=   1.8900 Ang.)
  Radius for C  used is    3.4960 Bohr (=   1.8500 Ang.)
  Radius for H  used is    2.2677 Bohr (=   1.2000 Ang.)
Calculating surface                               ...        done! (  0.0s)
Cavity surface points                             ...         1807
Cavity Volume                                     ...    1210.9113
Cavity Surface-area                               ...     745.7951
Calculating surface distance matrix               ...        done! (  0.0s)
Performing Cholesky decomposition & store         ...        done! (  0.2s)
Overall time for CPCM initialization              ...                 0.2s

----------------------------------------D-I-I-S--------------------------------------------
Iteration    Energy (Eh)           Delta-E    RMSDP     MaxDP     DIISErr   Damp  Time(sec)
-------------------------------------------------------------------------------------------
               ***  Starting incremental Fock matrix formation  ***
    1    -629.2979885653746805     0.00e+00  3.78e-03  8.65e-02  2.57e-01  0.700   8.0
    2    -629.4794128017765615    -1.81e-01  2.51e-03  5.09e-02  1.17e-01  0.700   4.1
                               ***Turning on AO-DIIS***
    3    -629.5506842881552529    -7.13e-02  1.01e-03  1.45e-02  3.69e-02  0.700   4.0
    4    -629.5936893068144400    -4.30e-02  1.61e-03  2.27e-02  1.79e-02  0.000   3.8
    5    -629.6876604573105851    -9.40e-02  3.60e-04  6.88e-03  6.39e-03  0.000   4.0
    6    -629.6882301145133169    -5.70e-04  1.15e-04  2.32e-03  2.25e-03  0.000   3.6
    7    -629.6882630373243046    -3.29e-05  4.34e-05  8.74e-04  5.82e-04  0.000   3.3
               *** Restarting incremental Fock matrix formation ***
                             ****Resetting DIIS****
    8    -629.6882772920550906    -1.43e-05  3.09e-05  5.58e-04  3.33e-04  0.000   7.6
    9    -629.6882770644003813     2.28e-07  1.25e-05  4.10e-04  5.86e-04  0.000   5.1
                              *** Initializing SOSCF ***
---------------------------------------S-O-S-C-F--------------------------------------
Iteration    Energy (Eh)           Delta-E    RMSDP     MaxDP     MaxGrad    Time(sec)
--------------------------------------------------------------------------------------
   10    -629.6882780833070683    -1.02e-06  3.02e-06  1.05e-04  1.07e-04     4.4
               *** Restarting incremental Fock matrix formation ***
   11    -629.6882780895016367    -6.19e-09  3.75e-06  1.21e-04  2.29e-05     7.5
   12    -629.6882780721975905     1.73e-08  2.36e-06  8.58e-05  4.40e-05     3.8
   13    -629.6882781099886870    -3.78e-08  5.96e-07  1.39e-05  3.12e-06     3.5
   14    -629.6882781032370531     6.75e-09  3.62e-07  8.92e-06  4.91e-06     3.0
                 **** Energy Check signals convergence ****

               *****************************************************
               *                     SUCCESS                       *
               *           SCF CONVERGED AFTER  14 CYCLES          *
               *****************************************************

Recomputing exchange energy using gridx3       ... done (   11.446 sec)
Old exchange energy                            :    -16.401909482 Eh
New exchange energy                            :    -16.401887037 Eh
Exchange energy change after final integration :      0.000022444 Eh
Total energy after final integration           :   -629.688255663 Eh

SMD CDS free energy correction energy :                 4.98550     Kcal/mol
Total Energy after SMD CDS correction =              -629.680310765 Eh
             **** ENERGY FILE WAS UPDATED (/kaggle/working/Tyr-1/Tyr_InterFrag.en.tmp) ****

----------------
TOTAL SCF ENERGY
----------------

Total Energy       :       -629.68031076537682 Eh          -17134.47236 eV

Components:
Nuclear Repulsion  :        775.95744112667785 Eh           21114.87543 eV
Electronic Energy  :      -1405.60487196251961 Eh          -38248.45308 eV
One Electron Energy:      -2397.93664812561838 Eh          -65251.17350 eV
Two Electron Energy:        992.33177616309877 Eh           27002.72042 eV
CPCM Dielectric    :         -0.04084727155747 Eh              -1.11151 eV
SMD CDS (Gcds)     :          0.00794489766852 Eh               0.21619 eV

Virial components:
Potential Energy   :      -1255.54657077334014 Eh          -34165.15911 eV
Kinetic Energy     :        625.86626000796332 Eh           17030.68676 eV
Virial Ratio       :          2.00609403478207

DFT components:
N(Alpha)           :       47.999950855120 electrons
N(Beta)            :       47.999950855120 electrons
N(Total)           :       95.999901710240 electrons
E(X)               :      -65.165767103795 Eh       
E(C)               :       -3.877135778502 Eh       
E(XC)              :      -69.042902882297 Eh       

CPCM Solvation Model Properties:
Surface-charge          :         -0.03578294156376
Corrected charge        :         -0.00000000000000
Outlying charge corr.   :          0.00008666156589 Eh               0.00236 eV
Free-energy (cav+disp)  :          0.00794489766852 Eh               0.21619 eV

---------------
SCF CONVERGENCE
---------------

  Last Energy change         ...   -6.7516e-09  Tolerance :   1.0000e-08
  Last MAX-Density change    ...    8.9220e-06  Tolerance :   1.0000e-07
  Last RMS-Density change    ...    3.6152e-07  Tolerance :   5.0000e-09
  Last DIIS Error            ...    1.0716e-04  Tolerance :   5.0000e-07
  Last Orbital Gradient      ...    4.9113e-06  Tolerance :   1.0000e-05
  Last Orbital Rotation      ...    3.7441e-06  Tolerance :   1.0000e-05


----------------
ORBITAL ENERGIES
----------------

  NO   OCC          E(Eh)            E(eV) 
   0   2.0000     -19.188367      -522.1420 
   1   2.0000     -19.164186      -521.4840 
   2   2.0000     -19.140760      -520.8466 
   3   2.0000     -14.299968      -389.1219 
   4   2.0000     -10.319693      -280.8131 
   5   2.0000     -10.235984      -278.5353 
   6   2.0000     -10.215797      -277.9860 
   7   2.0000     -10.175024      -276.8765 
   8   2.0000     -10.174102      -276.8514 
   9   2.0000     -10.172984      -276.8210 
  10   2.0000     -10.172896      -276.8186 
  11   2.0000     -10.172101      -276.7969 
  12   2.0000     -10.171888      -276.7911 
  13   2.0000      -1.095030       -29.7973 
  14   2.0000      -1.049595       -28.5609 
  15   2.0000      -1.010886       -27.5076 
  16   2.0000      -0.883848       -24.0507 
  17   2.0000      -0.846865       -23.0444 
  18   2.0000      -0.765334       -20.8258 
  19   2.0000      -0.739935       -20.1346 
  20   2.0000      -0.710827       -19.3426 
  21   2.0000      -0.660007       -17.9597 
  22   2.0000      -0.613038       -16.6816 
  23   2.0000      -0.588551       -16.0153 
  24   2.0000      -0.570856       -15.5338 
  25   2.0000      -0.533285       -14.5114 
  26   2.0000      -0.517750       -14.0887 
  27   2.0000      -0.483788       -13.1645 
  28   2.0000      -0.474449       -12.9104 
  29   2.0000      -0.461658       -12.5624 
  30   2.0000      -0.451849       -12.2954 
  31   2.0000      -0.431850       -11.7512 
  32   2.0000      -0.426280       -11.5997 
  33   2.0000      -0.415964       -11.3190 
  34   2.0000      -0.410262       -11.1638 
  35   2.0000      -0.401650       -10.9294 
  36   2.0000      -0.396508       -10.7895 
  37   2.0000      -0.377391       -10.2693 
  38   2.0000      -0.374293       -10.1850 
  39   2.0000      -0.349399        -9.5076 
  40   2.0000      -0.338809        -9.2195 
  41   2.0000      -0.328693        -8.9442 
  42   2.0000      -0.324387        -8.8270 
  43   2.0000      -0.316462        -8.6114 
  44   2.0000      -0.280072        -7.6211 
  45   2.0000      -0.246549        -6.7089 
  46   2.0000      -0.235662        -6.4127 
  47   2.0000      -0.208106        -5.6628 
  48   0.0000       0.000056         0.0015 
  49   0.0000       0.003994         0.1087 
  50   0.0000       0.023345         0.6352 
  51   0.0000       0.100261         2.7282 
  52   0.0000       0.101816         2.7706 
  53   0.0000       0.107718         2.9312 
  54   0.0000       0.116752         3.1770 
  55   0.0000       0.137684         3.7466 
  56   0.0000       0.149393         4.0652 
  57   0.0000       0.162553         4.4233 
  58   0.0000       0.174432         4.7465 
  59   0.0000       0.179823         4.8932 
  60   0.0000       0.196515         5.3474 
  61   0.0000       0.204917         5.5761 
  62   0.0000       0.209634         5.7044 
  63   0.0000       0.221935         6.0392 
  64   0.0000       0.256708         6.9854 
  65   0.0000       0.263474         7.1695 
  66   0.0000       0.277235         7.5439 
  67   0.0000       0.288544         7.8517 
  68   0.0000       0.326286         8.8787 
  69   0.0000       0.336688         9.1618 
  70   0.0000       0.350747         9.5443 
  71   0.0000       0.362106         9.8534 
  72   0.0000       0.365241         9.9387 
  73   0.0000       0.374554        10.1921 
  74   0.0000       0.488917        13.3041 
  75   0.0000       0.516396        14.0519 
  76   0.0000       0.517821        14.0906 
  77   0.0000       0.537659        14.6304 
  78   0.0000       0.545871        14.8539 
  79   0.0000       0.550654        14.9841 
  80   0.0000       0.561145        15.2695 
  81   0.0000       0.587503        15.9868 
  82   0.0000       0.597200        16.2506 
  83   0.0000       0.601625        16.3710 
  84   0.0000       0.607349        16.5268 
  85   0.0000       0.615068        16.7369 
  86   0.0000       0.625551        17.0221 
  87   0.0000       0.639734        17.4080 
  88   0.0000       0.648211        17.6387 
  89   0.0000       0.655761        17.8442 
  90   0.0000       0.661867        18.0103 
  91   0.0000       0.670889        18.2558 
  92   0.0000       0.696852        18.9623 
  93   0.0000       0.718325        19.5466 
  94   0.0000       0.730952        19.8902 
  95   0.0000       0.750607        20.4250 
  96   0.0000       0.758887        20.6504 
  97   0.0000       0.764569        20.8050 
  98   0.0000       0.789796        21.4914 
  99   0.0000       0.799485        21.7551 
 100   0.0000       0.815480        22.1903 
 101   0.0000       0.823738        22.4150 
 102   0.0000       0.830010        22.5857 
 103   0.0000       0.840920        22.8826 
 104   0.0000       0.859411        23.3858 
 105   0.0000       0.863433        23.4952 
 106   0.0000       0.870246        23.6806 
 107   0.0000       0.889046        24.1922 
 108   0.0000       0.892484        24.2857 
 109   0.0000       0.901463        24.5300 
 110   0.0000       0.914611        24.8878 
 111   0.0000       0.927210        25.2307 
 112   0.0000       0.945850        25.7379 
 113   0.0000       0.960509        26.1368 
 114   0.0000       0.968973        26.3671 
 115   0.0000       0.979529        26.6543 
 116   0.0000       0.990961        26.9654 
 117   0.0000       1.005121        27.3507 
 118   0.0000       1.020048        27.7569 
 119   0.0000       1.027511        27.9600 
 120   0.0000       1.056222        28.7413 
 121   0.0000       1.066962        29.0335 
 122   0.0000       1.097919        29.8759 
 123   0.0000       1.109965        30.2037 
 124   0.0000       1.147430        31.2232 
 125   0.0000       1.180006        32.1096 
 126   0.0000       1.192035        32.4369 
 127   0.0000       1.206231        32.8232 
 128   0.0000       1.235436        33.6179 
 129   0.0000       1.256729        34.1973 
 130   0.0000       1.270712        34.5778 
 131   0.0000       1.332477        36.2585 
 132   0.0000       1.347781        36.6750 
 133   0.0000       1.369959        37.2785 
 134   0.0000       1.397274        38.0218 
 135   0.0000       1.403807        38.1995 
 136   0.0000       1.409937        38.3663 
 137   0.0000       1.414332        38.4859 
 138   0.0000       1.425712        38.7956 
 139   0.0000       1.444694        39.3121 
 140   0.0000       1.478901        40.2429 
 141   0.0000       1.485294        40.4169 
 142   0.0000       1.511506        41.1302 
 143   0.0000       1.569067        42.6965 
 144   0.0000       1.600372        43.5483 
 145   0.0000       1.602405        43.6037 
 146   0.0000       1.690549        46.0022 
 147   0.0000       1.709417        46.5156 
 148   0.0000       1.724894        46.9368 
 149   0.0000       1.749549        47.6077 
 150   0.0000       1.766795        48.0769 
 151   0.0000       1.778143        48.3857 
 152   0.0000       1.796008        48.8719 
 153   0.0000       1.800432        48.9922 
 154   0.0000       1.820836        49.5475 
 155   0.0000       1.829298        49.7777 
 156   0.0000       1.861482        50.6535 
 157   0.0000       1.875717        51.0408 
 158   0.0000       1.895520        51.5797 
 159   0.0000       1.913686        52.0740 
 160   0.0000       1.925273        52.3893 
 161   0.0000       1.928136        52.4673 
 162   0.0000       1.939850        52.7860 
 163   0.0000       1.945101        52.9289 
 164   0.0000       1.964894        53.4675 
 165   0.0000       1.982898        53.9574 
 166   0.0000       1.990096        54.1533 
 167   0.0000       1.995731        54.3066 
 168   0.0000       2.009921        54.6927 
 169   0.0000       2.016256        54.8651 
 170   0.0000       2.052137        55.8415 
 171   0.0000       2.089836        56.8673 
 172   0.0000       2.111382        57.4536 
 173   0.0000       2.138444        58.1900 
 174   0.0000       2.177653        59.2570 
 175   0.0000       2.201523        59.9065 
 176   0.0000       2.222498        60.4772 
 177   0.0000       2.261488        61.5382 
 178   0.0000       2.277496        61.9738 
 179   0.0000       2.286047        62.2065 
 180   0.0000       2.299256        62.5659 
 181   0.0000       2.305858        62.7456 
 182   0.0000       2.319954        63.1292 
 183   0.0000       2.331550        63.4447 
 184   0.0000       2.351381        63.9843 
 185   0.0000       2.361702        64.2652 
 186   0.0000       2.373630        64.5898 
 187   0.0000       2.380291        64.7710 
 188   0.0000       2.415053        65.7169 
 189   0.0000       2.424509        65.9742 
 190   0.0000       2.437295        66.3222 
 191   0.0000       2.471429        67.2510 
 192   0.0000       2.484336        67.6022 
 193   0.0000       2.494029        67.8660 
 194   0.0000       2.502856        68.1062 
 195   0.0000       2.516480        68.4769 
 196   0.0000       2.523907        68.6790 
 197   0.0000       2.531324        68.8808 
 198   0.0000       2.541113        69.1472 
 199   0.0000       2.595533        70.6280 
 200   0.0000       2.606275        70.9203 
 201   0.0000       2.614092        71.1330 
 202   0.0000       2.631837        71.6159 
 203   0.0000       2.638320        71.7923 
 204   0.0000       2.678227        72.8783 
 205   0.0000       2.689476        73.1844 
 206   0.0000       2.718617        73.9773 
 207   0.0000       2.726916        74.2032 
 208   0.0000       2.742013        74.6140 
 209   0.0000       2.747742        74.7699 
 210   0.0000       2.780878        75.6715 
 211   0.0000       2.807141        76.3862 
 212   0.0000       2.817166        76.6590 
 213   0.0000       2.837973        77.2252 
 214   0.0000       2.861688        77.8705 
 215   0.0000       2.876236        78.2664 
 216   0.0000       2.900219        78.9190 
 217   0.0000       2.925221        79.5993 
 218   0.0000       2.945252        80.1444 
 219   0.0000       2.981509        81.1310 
 220   0.0000       3.064863        83.3992 
 221   0.0000       3.084111        83.9229 
 222   0.0000       3.122359        84.9637 
 223   0.0000       3.178266        86.4850 
 224   0.0000       3.214047        87.4587 
 225   0.0000       3.263275        88.7982 
 226   0.0000       3.314972        90.2050 
 227   0.0000       3.330405        90.6249 
 228   0.0000       3.360558        91.4454 
 229   0.0000       3.371238        91.7360 
 230   0.0000       3.398372        92.4744 
 231   0.0000       3.457650        94.0874 
 232   0.0000       3.504927        95.3739 
 233   0.0000       3.532941        96.1362 
 234   0.0000       3.546029        96.4924 
 235   0.0000       3.565447        97.0207 
 236   0.0000       3.885770       105.7372 

                    ********************************
                    * MULLIKEN POPULATION ANALYSIS *
                    ********************************

-----------------------
MULLIKEN ATOMIC CHARGES
-----------------------
   0 O :   -0.504699
   1 O :   -0.582812
   2 O :   -0.511598
   3 N :   -0.626498
   4 C :   -0.250966
   5 C :   -0.006312
   6 C :    0.077355
   7 C :   -0.132503
   8 C :   -0.132792
   9 C :    0.582838
  10 C :   -0.178554
  11 C :   -0.151203
  12 C :    0.311257
  13 H :    0.119646
  14 H :    0.123442
  15 H :    0.140798
  16 H :    0.114187
  17 H :    0.113630
  18 H :    0.267623
  19 H :    0.260084
  20 H :    0.118670
  21 H :    0.108636
  22 H :    0.372632
  23 H :    0.367140
Sum of atomic charges:    0.0000000

--------------------------------
MULLIKEN REDUCED ORBITAL CHARGES
--------------------------------
  0 O s       :     3.827501  s :     3.827501
      pz      :     1.683210  p :     4.656177
      px      :     1.678705
      py      :     1.294261
      dz2     :     0.004611  d :     0.021020
      dxz     :     0.004371
      dyz     :     0.002655
      dx2y2   :     0.003935
      dxy     :     0.005448

  1 O s       :     3.832449  s :     3.832449
      pz      :     1.794472  p :     4.727303
      px      :     1.478505
      py      :     1.454326
      dz2     :     0.002683  d :     0.023060
      dxz     :     0.005096
      dyz     :     0.003312
      dx2y2   :     0.009007
      dxy     :     0.002963

  2 O s       :     3.848104  s :     3.848104
      pz      :     1.470192  p :     4.637828
      px      :     1.413889
      py      :     1.753747
      dz2     :     0.005737  d :     0.025666
      dxz     :     0.006499
      dyz     :     0.002871
      dx2y2   :     0.005748
      dxy     :     0.004811

  3 N s       :     3.589404  s :     3.589404
      pz      :     1.445796  p :     4.008522
      px      :     1.393038
      py      :     1.169688
      dz2     :     0.010660  d :     0.028572
      dxz     :     0.003566
      dyz     :     0.000648
      dx2y2   :     0.007155
      dxy     :     0.006542

  4 C s       :     3.236914  s :     3.236914
      pz      :     0.977395  p :     2.976284
      px      :     0.943367
      py      :     1.055522
      dz2     :     0.008536  d :     0.037769
      dxz     :     0.008989
      dyz     :     0.004516
      dx2y2   :     0.010636
      dxy     :     0.005091

  5 C s       :     3.192990  s :     3.192990
      pz      :     1.014126  p :     2.756625
      px      :     0.877515
      py      :     0.864985
      dz2     :     0.012454  d :     0.056698
      dxz     :     0.012925
      dyz     :     0.004555
      dx2y2   :     0.014249
      dxy     :     0.012515

  6 C s       :     3.133707  s :     3.133707
      pz      :     0.954610  p :     2.747262
      px      :     0.900531
      py      :     0.892120
      dz2     :     0.005306  d :     0.041676
      dxz     :     0.006693
      dyz     :     0.006405
      dx2y2   :     0.011668
      dxy     :     0.011604

  7 C s       :     3.190025  s :     3.190025
      pz      :     0.992935  p :     2.906594
      px      :     0.956353
      py      :     0.957306
      dz2     :     0.002969  d :     0.035884
      dxz     :     0.006399
      dyz     :     0.006093
      dx2y2   :     0.009729
      dxy     :     0.010694

  8 C s       :     3.191333  s :     3.191333
      pz      :     0.976549  p :     2.905572
      px      :     0.945657
      py      :     0.983365
      dz2     :     0.004589  d :     0.035888
      dxz     :     0.006740
      dyz     :     0.004360
      dx2y2   :     0.010297
      dxy     :     0.009902

  9 C s       :     2.987969  s :     2.987969
      pz      :     0.724391  p :     2.309605
      px      :     0.730911
      py      :     0.854302
      dz2     :     0.021328  d :     0.119588
      dxz     :     0.020247
      dyz     :     0.021543
      dx2y2   :     0.023788
      dxy     :     0.032682

 10 C s       :     3.179894  s :     3.179894
      pz      :     1.020295  p :     2.965407
      px      :     0.973145
      py      :     0.971968
      dz2     :     0.004216  d :     0.033253
      dxz     :     0.006318
      dyz     :     0.003979
      dx2y2   :     0.008615
      dxy     :     0.010125

 11 C s       :     3.183880  s :     3.183880
      pz      :     1.027028  p :     2.934240
      px      :     0.969797
      py      :     0.937416
      dz2     :     0.002935  d :     0.033083
      dxz     :     0.006151
      dyz     :     0.005222
      dx2y2   :     0.008911
      dxy     :     0.009865

 12 C s       :     3.073177  s :     3.073177
      pz      :     0.943115  p :     2.544179
      px      :     0.699425
      py      :     0.901639
      dz2     :     0.008159  d :     0.071388
      dxz     :     0.015057
      dyz     :     0.008286
      dx2y2   :     0.021260
      dxy     :     0.018625

 13 H s       :     0.868829  s :     0.868829
      pz      :     0.006016  p :     0.011524
      px      :     0.002507
      py      :     0.003002

 14 H s       :     0.864994  s :     0.864994
      pz      :     0.002365  p :     0.011565
      px      :     0.002122
      py      :     0.007077

 15 H s       :     0.848226  s :     0.848226
      pz      :     0.006561  p :     0.010976
      px      :     0.002554
      py      :     0.001861

 16 H s       :     0.873435  s :     0.873435
      pz      :     0.003905  p :     0.012378
      px      :     0.004201
      py      :     0.004271

 17 H s       :     0.873972  s :     0.873972
      pz      :     0.002937  p :     0.012398
      px      :     0.002491
      py      :     0.006971

 18 H s       :     0.708921  s :     0.708921
      pz      :     0.006056  p :     0.023456
      px      :     0.005478
      py      :     0.011921

 19 H s       :     0.716382  s :     0.716382
      pz      :     0.011798  p :     0.023534
      px      :     0.007168
      py      :     0.004568

 20 H s       :     0.868824  s :     0.868824
      pz      :     0.003103  p :     0.012506
      px      :     0.002392
      py      :     0.007011

 21 H s       :     0.878902  s :     0.878902
      pz      :     0.004013  p :     0.012463
      px      :     0.004186
      py      :     0.004264

 22 H s       :     0.590368  s :     0.590368
      pz      :     0.007183  p :     0.037000
      px      :     0.008453
      py      :     0.021364

 23 H s       :     0.594899  s :     0.594899
      pz      :     0.010452  p :     0.037961
      px      :     0.006873
      py      :     0.020636


------------------------
MULLIKEN OVERLAP CHARGES
------------------------
B(  0-O ,  2-O ) :  -0.1587 B(  0-O ,  5-C ) :  -0.1560 B(  0-O ,  9-C ) :   0.6041 
B(  0-O , 22-H ) :   0.5592 B(  1-O , 10-C ) :  -0.1312 B(  1-O , 11-C ) :  -0.1015 
B(  1-O , 12-C ) :   0.5879 B(  1-O , 23-H ) :   0.6227 B(  2-O ,  5-C ) :  -0.1560 
B(  2-O ,  9-C ) :   1.2199 B(  3-N ,  4-C ) :  -0.1345 B(  3-N ,  5-C ) :   0.6267 
B(  3-N ,  9-C ) :  -0.0901 B(  3-N , 15-H ) :  -0.0749 B(  3-N , 18-H ) :   0.6976 
B(  3-N , 19-H ) :   0.6876 B(  4-C ,  5-C ) :   0.7149 B(  4-C ,  6-C ) :   0.6258 
B(  4-C ,  7-C ) :  -0.1070 B(  4-C ,  8-C ) :  -0.1099 B(  4-C ,  9-C ) :  -0.0606 
B(  4-C , 13-H ) :   0.7199 B(  4-C , 14-H ) :   0.7538 B(  4-C , 15-H ) :  -0.0896 
B(  5-C ,  6-C ) :  -0.0852 B(  5-C ,  9-C ) :   0.6281 B(  5-C , 13-H ) :  -0.0714 
B(  5-C , 14-H ) :  -0.0660 B(  5-C , 15-H ) :   0.7540 B(  5-C , 18-H ) :  -0.0731 
B(  5-C , 19-H ) :  -0.0803 B(  6-C ,  7-C ) :   1.0946 B(  6-C ,  8-C ) :   1.1085 
B(  6-C , 11-C ) :  -0.0611 B(  6-C , 12-C ) :  -0.0750 B(  6-C , 14-H ) :  -0.0601 
B(  6-C , 16-H ) :  -0.0812 B(  6-C , 17-H ) :  -0.0826 B(  7-C ,  8-C ) :  -0.0717 
B(  7-C , 10-C ) :   0.8863 B(  7-C , 11-C ) :  -0.0914 B(  7-C , 16-H ) :   0.7412 
B(  7-C , 20-H ) :  -0.0657 B(  8-C , 10-C ) :  -0.0954 B(  8-C , 11-C ) :   1.0283 
B(  8-C , 12-C ) :  -0.0510 B(  8-C , 17-H ) :   0.7484 B(  8-C , 21-H ) :  -0.0696 
B(  9-C , 15-H ) :  -0.0663 B( 10-C , 11-C ) :  -0.0941 B( 10-C , 12-C ) :   1.0216 
B( 10-C , 16-H ) :  -0.0715 B( 10-C , 20-H ) :   0.7310 B( 11-C , 12-C ) :   1.0806 
B( 11-C , 17-H ) :  -0.0805 B( 11-C , 21-H ) :   0.7186 B( 12-C , 20-H ) :  -0.0788 
B( 12-C , 21-H ) :  -0.0829 B( 12-C , 23-H ) :  -0.0756 B( 13-H , 14-H ) :  -0.0667 
B( 18-H , 19-H ) :  -0.0604 


                     *******************************
                     * LOEWDIN POPULATION ANALYSIS *
                     *******************************

----------------------
LOEWDIN ATOMIC CHARGES
----------------------
   0 O :   -0.163502
   1 O :   -0.204115
   2 O :   -0.295863
   3 N :   -0.281940
   4 C :   -0.118060
   5 C :   -0.035261
   6 C :   -0.045010
   7 C :   -0.078693
   8 C :   -0.076197
   9 C :    0.173981
  10 C :   -0.122371
  11 C :   -0.113380
  12 C :    0.059493
  13 H :    0.081527
  14 H :    0.084755
  15 H :    0.091484
  16 H :    0.085279
  17 H :    0.086212
  18 H :    0.138994
  19 H :    0.134163
  20 H :    0.087401
  21 H :    0.085144
  22 H :    0.217595
  23 H :    0.208363

-------------------------------
LOEWDIN REDUCED ORBITAL CHARGES
-------------------------------
  0 O s       :     3.476362  s :     3.476362
      pz      :     1.668360  p :     4.641831
      px      :     1.670489
      py      :     1.302982
      dz2     :     0.007676  d :     0.045309
      dxz     :     0.007843
      dyz     :     0.007887
      dx2y2   :     0.009979
      dxy     :     0.011925

  1 O s       :     3.459885  s :     3.459885
      pz      :     1.766770  p :     4.697045
      px      :     1.485744
      py      :     1.444531
      dz2     :     0.004713  d :     0.047186
      dxz     :     0.009595
      dyz     :     0.005390
      dx2y2   :     0.019216
      dxy     :     0.008272

  2 O s       :     3.560698  s :     3.560698
      pz      :     1.481624  p :     4.683263
      px      :     1.462760
      py      :     1.738879
      dz2     :     0.008059  d :     0.051901
      dxz     :     0.016262
      dyz     :     0.005726
      dx2y2   :     0.010882
      dxy     :     0.010972

  3 N s       :     3.197079  s :     3.197079
      pz      :     1.432478  p :     4.029033
      px      :     1.410252
      py      :     1.186303
      dz2     :     0.017231  d :     0.055827
      dxz     :     0.007771
      dyz     :     0.001858
      dx2y2   :     0.014644
      dxy     :     0.014324

  4 C s       :     2.898620  s :     2.898620
[...]
 9 C  dxz             0.0       0.2       0.0
 9 C  dx2y2           0.0       0.8       0.0
10 C  s               0.9       0.0       0.2
10 C  pz              0.1       0.0       0.1
10 C  px              0.4       0.0       0.1
10 C  py              0.9       0.0       0.8
10 C  dz2             0.4       0.0       0.2
10 C  dxz             0.7       0.0       2.1
10 C  dyz             2.4       0.1       2.1
10 C  dx2y2           3.4       0.1       5.7
10 C  dxy             1.5       0.0       1.4
11 C  s               0.8       0.0       0.2
11 C  pz              0.4       0.0       0.3
11 C  px              0.8       0.0       0.4
11 C  py              0.2       0.0       0.2
11 C  dz2             0.1       0.0       0.6
11 C  dxz             3.2       0.0       3.1
11 C  dyz             1.5       0.0       1.3
11 C  dx2y2           0.2       0.0       0.1
11 C  dxy             3.4       0.0       6.4
12 C  py              0.1       0.0       0.0
12 C  dz2             0.0       0.0       0.6
12 C  dxz             0.4       0.0       0.1
12 C  dyz             0.0       0.0       1.8
12 C  dx2y2           0.2       0.0       2.9
12 C  dxy             0.4       0.0       2.0
13 H  s               0.0       1.2       0.1
13 H  pz              0.0       4.2       0.2
13 H  py              0.0       0.2       0.0
14 H  s               0.0       0.7       0.0
14 H  px              0.0       0.1       0.0
14 H  py              0.0       2.1       0.1
15 H  s               0.0       4.9       0.0
15 H  pz              0.0      15.1       0.0
15 H  px              0.0       1.9       0.0
15 H  py              0.0       2.3       0.0
16 H  s               2.8       0.0       2.0
16 H  pz              4.5       0.0       1.9
16 H  px              3.4       0.1       2.0
16 H  py              3.9       0.0       1.3
17 H  s               2.1       0.0       1.9
17 H  pz              2.0       0.0       0.8
17 H  px              0.2       0.0       0.4
17 H  py              7.0       0.0       4.0
18 H  s               0.0       2.5       0.0
18 H  pz              0.0       0.1       0.0
18 H  py              0.0       5.7       0.0
19 H  s               0.0       3.2       0.0
19 H  pz              0.1       5.3       0.0
19 H  px              0.0       1.8       0.0
19 H  py              0.0       0.3       0.0
20 H  s               2.5       0.0       2.0
20 H  pz              1.8       0.0       0.8
20 H  px              0.6       0.1       0.5
20 H  py              7.8       0.0       4.3
21 H  s               2.5       0.0       2.1
21 H  pz              3.9       0.0       2.0
21 H  px              3.3       0.0       2.3
21 H  py              3.2       0.0       1.2
22 H  s               0.0       1.1       0.0
22 H  py              0.0       2.3       0.0
23 H  s               0.5       0.0       0.7
23 H  pz              0.6       0.0       0.2
23 H  px              0.1       0.0       0.0
23 H  py              0.9       0.0       0.7


                      *****************************
                      * MAYER POPULATION ANALYSIS *
                      *****************************

  NA   - Mulliken gross atomic population
  ZA   - Total nuclear charge
  QA   - Mulliken gross atomic charge
  VA   - Mayer's total valence
  BVA  - Mayer's bonded valence
  FA   - Mayer's free valence

  ATOM       NA         ZA         QA         VA         BVA        FA
  0 O      8.4873     8.0000    -0.4873     2.0419     2.0419     0.0000
  1 O      8.5853     8.0000    -0.5853     1.9354     1.9354     0.0000
  2 O      8.5155     8.0000    -0.5155     2.0151     2.0151    -0.0000
  3 N      7.6229     7.0000    -0.6229     2.8446     2.8446    -0.0000
  4 C      6.2511     6.0000    -0.2511     3.8684     3.8684     0.0000
  5 C      6.0044     6.0000    -0.0044     3.8507     3.8507    -0.0000
  6 C      5.9167     6.0000     0.0833     3.9344     3.9344    -0.0000
  7 C      6.1480     6.0000    -0.1480     3.9335     3.9335    -0.0000
  8 C      6.1455     6.0000    -0.1455     3.9439     3.9439     0.0000
  9 C      5.4287     6.0000     0.5713     3.9457     3.9457     0.0000
 10 C      6.1613     6.0000    -0.1613     3.8832     3.8832     0.0000
 11 C      6.1378     6.0000    -0.1378     3.8968     3.8968    -0.0000
 12 C      5.7003     6.0000     0.2997     3.8802     3.8802    -0.0000
 13 H      0.8803     1.0000     0.1197     0.9577     0.9577     0.0000
 14 H      0.8735     1.0000     0.1265     0.9538     0.9538    -0.0000
 15 H      0.8671     1.0000     0.1329     0.9508     0.9508     0.0000
 16 H      0.8875     1.0000     0.1125     0.9606     0.9606    -0.0000
 17 H      0.8886     1.0000     0.1114     0.9562     0.9562     0.0000
 18 H      0.7290     1.0000     0.2710     0.9084     0.9084    -0.0000
 19 H      0.7378     1.0000     0.2622     0.9219     0.9219     0.0000
 20 H      0.8782     1.0000     0.1218     0.9534     0.9534     0.0000
 21 H      0.8876     1.0000     0.1124     0.9579     0.9579    -0.0000
 22 H      0.6311     1.0000     0.3689     0.8779     0.8779     0.0000
 23 H      0.6344     1.0000     0.3656     0.8673     0.8673     0.0000

  Mayer bond orders larger than 0.100000
B(  0-O ,  9-C ) :   1.1251 B(  0-O , 22-H ) :   0.8251 B(  1-O , 12-C ) :   0.9648 
B(  1-O , 23-H ) :   0.8472 B(  2-O ,  9-C ) :   1.8520 B(  3-N ,  5-C ) :   1.0157 
B(  3-N , 18-H ) :   0.8980 B(  3-N , 19-H ) :   0.8920 B(  4-C ,  5-C ) :   0.9564 
B(  4-C ,  6-C ) :   0.9831 B(  4-C , 13-H ) :   0.9374 B(  4-C , 14-H ) :   0.9373 
B(  5-C ,  9-C ) :   0.9313 B(  5-C , 15-H ) :   0.9300 B(  6-C ,  7-C ) :   1.4223 
B(  6-C ,  8-C ) :   1.4156 B(  7-C , 10-C ) :   1.4152 B(  7-C , 16-H ) :   0.9329 
B(  8-C , 11-C ) :   1.4427 B(  8-C , 17-H ) :   0.9362 B( 10-C , 12-C ) :   1.3897 
B( 10-C , 20-H ) :   0.9315 B( 11-C , 12-C ) :   1.3890 B( 11-C , 21-H ) :   0.9330 


-------
TIMINGS
-------

Total SCF time: 0 days 0 hours 0 min 57 sec 

Total time                  ....      57.089 sec
Sum of individual times     ....      53.948 sec  ( 94.5%)

SCF preparation             ....       0.645 sec  (  1.1%)
Fock matrix formation       ....      52.657 sec  ( 92.2%)
  Startup                   ....       0.008 sec  (  0.0% of F)
  Split-RI-J                ....       3.769 sec  (  7.2% of F)
  Chain of spheres X        ....      41.982 sec  ( 79.7% of F)
  XC integration            ....       5.480 sec  ( 10.4% of F)
    XC Preparation          ....       0.000 sec  (  0.0% of XC)
    Basis function eval.    ....       1.854 sec  ( 33.8% of XC)
    Density eval.           ....       1.531 sec  ( 27.9% of XC)
    XC-Functional eval.     ....       0.264 sec  (  4.8% of XC)
    XC-Potential eval.      ....       1.424 sec  ( 26.0% of XC)
  CPCM terms                ....       4.424 sec  (  8.4% of F)
Diagonalization             ....       0.000 sec  (  0.0%)
Density matrix formation    ....       0.026 sec  (  0.0%)
Total Energy calculation    ....       0.014 sec  (  0.0%)
Population analysis         ....       0.341 sec  (  0.6%)
Orbital Transformation      ....       0.040 sec  (  0.1%)
Orbital Orthonormalization  ....       0.000 sec  (  0.0%)
DIIS solution               ....       0.173 sec  (  0.3%)
  MO trafo                  ....       0.020 sec  ( 11.3 % of DIIS)
  Orb grad                  ....       0.000 sec  (  0.0 % of DIIS)
  Energy W gradient         ....       0.000 sec  (  0.0 % of DIIS)
  DIIS error                ....       0.033 sec  ( 19.3 % of DIIS)
  DIIS work                 ....       0.095 sec  ( 55.1 % of DIIS)
  Form Q                    ....       0.000 sec  (  0.0 % of DIIS)
  Form QpQm                 ....       0.000 sec  (  0.0 % of DIIS)
  Exp/Cayley                ....       0.000 sec  (  0.0 % of DIIS)
  Orb update                ....       0.000 sec  (  0.0 % of DIIS)
  Wake-sleep                ....       0.005 sec  (  2.8 % of DIIS)
SOSCF solution              ....       0.052 sec  (  0.1%)
  MO trafo                  ....       0.029 sec  ( 56.4 % of SOSCF)
  Orb grad                  ....       0.001 sec  (  2.5 % of SOSCF)
  Rot update                ....       0.002 sec  (  4.0 % of SOSCF)
  Step                      ....       0.017 sec  ( 32.0 % of SOSCF)
Finished LeanSCF after  57.3 sec

Maximum memory used throughout the entire LEANSCF-calculation: 37.8 MB


-------------------------------------------------------------------------------
                          DFT DISPERSION CORRECTION                            
                                                                               
                              DFTD3 V3.1  Rev 1                                
                          USING Becke-Johnson damping                          
-------------------------------------------------------------------------------
The B3LYP functional is recognized
Active option DFTDOPT                   ...         4   

molecular C6(AA) [au] = 5885.983504 


            DFT-D V3
 parameters
 s6 scaling factor         :     1.0000 
 a1 scaling factor         :     0.3981 
 s8 scaling factor         :     1.9889 
 a2 scaling factor         :     4.4211 
 ad hoc parameters k1-k3   :    16.0000     1.3333    -4.0000 

 Edisp/kcal,au: -28.430056910981  -0.045306174733 
 E6   /kcal   : -13.508878239 
 E8   /kcal   : -14.921178672 
 % E8         :  52.483815698 

-------------------------   ----------------
Dispersion correction           -0.045306175
-------------------------   ----------------


-------------------------   --------------------
FINAL SINGLE POINT ENERGY      -629.733492973242
-------------------------   --------------------

                                *** OPTIMIZATION RUN DONE ***



           ************************************************************
           *        Program running with 2 parallel MPI-processes     *
           *              working on a common directory               *
           ************************************************************

------------------------------------------------------------------------------
                              ORCA PROPERTY CALCULATIONS
------------------------------------------------------------------------------

GBWName                                 ... /kaggle/working/Tyr-1/Tyr_InterFrag.gbw
Number of atoms                         ...     24
Number of basis functions               ...    237
Max core memory                         ...   3000 MB

Electric properties:
Dipole moment                           ... YES
Quadrupole moment                       ...  NO
Static polarizability (Dipole/Dipole)   ...  NO
Static polarizability (Dipole/Quad.)    ...  NO
Static polarizability (Quad./Quad.)     ...  NO
Static polarizability (Velocity)        ...  NO
Static hyperpolarizability              ...  NO

Atomic electric properties:
Dipole moment                           ...  NO
Quadrupole moment                       ...  NO
Static polarizability                   ...  NO

Choice of electric origin               ... Center of mass
Position of electric origin             ...    -0.040683    -0.088134    -0.073080

General magnetic properties:
Magnetizability                         ...  NO

EPR properties:
g-Tensor (aka g-matrix)                 ...  NO
Zero-Field splitting spin-orbit         ...  NO
Zero-field splitting spin-spin          ...  NO
Hyperfine couplings                     ...  NO (   0 nuclei)
Quadrupole couplings                    ...  NO (   0 nuclei)
Contact density                         ...  NO (   0 nuclei)

NMR properties:
Chemical shifts                         ...  NO (   0 nuclei)
Spin-rotation constants                 ...  NO (   0 nuclei)
Spin-spin couplings                     ...  NO (   0 nuclei,    0 pairs)

Choice of magnetic origin               ... GIAO
Position of magnetic origin             ...     0.000000     0.000000     0.000000

Properties with geometric perturbations:
SCF Hessian                             ...  NO
IR spectrum                             ...  NO
VCD spectrum                            ...  NO
X-ray spectroscopy properties:
SCF XES/XAS/RIXS spectra                ...  NO

SCF SOC stabilization energy            ...  NO
Diagonal Born-Oppenheimer correction    ...  NO

-------------
DIPOLE MOMENT
-------------

Method             : SCF
Type of density    : Electron Density
Multiplicity       :   1
Irrep              :   0
Energy             :  -629.6881867985089229 Eh
Basis              : AO
                                X                 Y                 Z
Electronic contribution:      2.702678541      -4.367456279      -1.482711568
Nuclear contribution   :     -1.956663871       4.309500966       1.889243688
                        -----------------------------------------
Total Dipole Moment    :      0.746014670      -0.057955313       0.406532120
                        -----------------------------------------
Magnitude (a.u.)       :      0.851566246
Magnitude (Debye)      :      2.164509380



--------------------
Rotational spectrum 
--------------------
 
Rotational constants in cm-1:             0.056638             0.014878             0.013495 
Rotational constants in MHz :          1697.975399           446.021606           404.573075 

Dipole components along the rotational axes: 
x,y,z [a.u.] :     0.746132     0.024948     0.409670 
x,y,z [Debye]:     1.896518     0.063413     1.041297 

 

Dipole moment calculation done in   0.0 sec 

Maximum memory used throughout the entire PROP-calculation: 14.0 MB

--------------------------------
SUGGESTED CITATIONS FOR THIS RUN
--------------------------------

Below you find a list of papers that are relevant to this ORCA run
We neither can nor want to force you to cite these papers, but we appreciate if you do
You receive ORCA, which is the product of decades of hard work by many enthusiastic individuals, for free
The only thing we kindly ask in return is that you cite our papers,
We deeply appreciate it, if you show your appreciation for ORCA by not just citing the generic ORCA reference.

Please note that relegating all ORCA citations to the supporting information does *not* help us.
SI sections are not indexed - citations you put there will not count into any citation statistics
But we need these citations in order to attract the funding resources that allow us to do what we are doing

Therefore, if you are a happy ORCA user, please consider citing a few of the papers listed below in the main body of your paper

In addition to the list printed below, the program has created the file /kaggle/working/Tyr-1/Tyr_InterFrag.bibtex that contains the list in bibtex format
You can import this file easily into all common literature databanks and citation aid programs

It goes without saying that in many instances, there are alternative algorithms to achieve similar
results as the ones you have gotten from ORCA. It is, of course, also the case that in some instances
ORCA just re-implements algorithms worked out by others. We are fully aware of that and we are also
fully appreciative of our colleagues work. Hence this citation list should not be read as indicating
that the listed papers, which are focused on our own work, are the only ones worth citing. It simply
meant to make it easier for users to cite ORCA specific papers. It is not a substitute for doing your
own literature research and citing the relevant literature in a scientifically appropriate manner.

List of essential papers. We consider these as the minimum necessary citations

  1. Neese, F.
     Software update: the ORCA program system, version 6.0
     WIRES Comput. Molec. Sci. 2025 15(1), e70019
     doi.org/10.1002/wcms.70019

List of papers to cite with high priority. The work reported in these papers was absolutely
necessary for this run to complete.
Our perspective: the developers of density functionals and basis sets usually get cited in chemistry papers
Good! But without the algorithms to do something with them, the functionals or basis sets would not do anything.
Hence, in our opinion, the algorithm design and method developments papers are equally worthy of getting cited

  1. Neese, F.
     An improvement of the resolution of the identity approximation for the formation of the Coulomb matrix
     J. Comp. Chem. 2003 24(14), 1740-1747
     doi.org/10.1002/jcc.10318
  2. Neese, F.; Wennmohs, F.; Hansen, A.; Becker, U.
     Efficient, approximate and parallel Hartree-Fock and hybrid DFT calculations. A 'chain-of-spheres' algorithm for the Hartree-Fock exchange
     Chem. Phys. 2009 356(1-3), 98-109
     doi.org/10.1016/j.chemphys.2008.10.036
  3. Grimme, S.; Antony, J.; Ehrlich, S.; Krieg, H.
     A consistent and accurate ab initio parametrization of density functional dispersion correction (DFT-D) for the 94 elements H-Pu
     J. Chem. Phys. 2010 132 , 154104
     doi.org/10.1063/1.3382344
  4. Grimme, S.; Ehrlich, S.; Goerigk, L.
     Effect of the damping function in dispersion corrected density functional theory
     J. Comput. Chem. 2011 32(7), 1456-1465
     doi.org/10.1002/jcc.21759
  5. Garcia-Rates, M.; Neese, F.
     Effect of the Solute Cavity on the Solvation Energy and its Derivatives within the Framework of the Gaussian Charge Scheme
     J. Comput. Chem. 2020 41 , 922-939
     doi.org/10.1002/jcc.26139
  6. Helmich-Paris, B.; de Souza, B.; Neese, F.; Izsák, R.
     An improved chain of spheres for exchange algorithm
     J. Chem. Phys. 2021 155(10), 104109
     doi.org/10.1063/5.0058766
  7. Neese, F.
     The SHARK Integral Generation and Digestion System
     J. Comp. Chem. 2022 44(3), 381
     doi.org/10.1002/jcc.26942

List of suggested additional citations. These are papers that are important in the 'surrounding' of 
of this run, or papers that preceded the highly important papers. If you like your results we are grateful for a citation.

  1. Izsak, R.; Neese, F.
     An overlap fitted chain of spheres exchange method
     J. Chem. Phys. 2011 135 , 144105
     doi.org/10.1063/1.3646921
  2. Izsak, R.; Hansen, A.; Neese, F.
     The resolution of identity and chain of spheres approximations for the LPNO-CCSD singles Fock term
     Molec. Phys. 2012 110 , 2413-2417
     doi.org/10.1080/00268976.2012.687466
  3. Neese, F.
     The ORCA program system
     WIRES Comput. Molec. Sci. 2012 2(1), 73-78
     doi.org/10.1002/wcms.81
  4. Izsak, R.; Neese, F.; Klopper, W.
     Robust fitting techniques in the chain of spheres approximation to the Fock exchange: The role of the complementary space
     J. Chem. Phys. 2013 139 , 
     doi.org/10.1063/1.4819264
  5. Neese, F.
     Software update: the ORCA program system, version 4.0
     WIRES Comput. Molec. Sci. 2018 8(1), 1-6
     doi.org/10.1002/wcms.1327
  6. Neese, F.; Wennmohs, F.; Becker, U.; Riplinger, C.
     The ORCA quantum chemistry program package
     J. Chem. Phys. 2020 152(22), 224108
     doi.org/10.1063/5.0004608
  7. Neese, F.
     Software update: The ORCA program system—Version 5.0
     WIRES Comput. Molec. Sci. 2022 12(1), e1606
     doi.org/10.1002/wcms.1606

List of optional additional citations

  1. Neese, F.
     Approximate second-order SCF convergence for spin unrestricted wavefunctions
     Chem. Phys. Lett. 2000 325(1-3), 93-98
     doi.org/10.1016/s0009-2614(00)00662-x

Timings for individual modules:

Sum of individual times          ...     1051.187 sec (=  17.520 min)
Startup calculation              ...       35.141 sec (=   0.586 min)   3.3 %
SCF iterations                   ...      652.885 sec (=  10.881 min)  62.1 %
Property calculations            ...        0.466 sec (=   0.008 min)   0.0 %
SCF Gradient evaluation          ...      362.607 sec (=   6.043 min)  34.5 %
Geometry relaxation              ...        0.088 sec (=   0.001 min)   0.0 %
                             ****ORCA TERMINATED NORMALLY****
TOTAL RUN TIME: 0 days 0 hours 17 minutes 35 seconds 956 msec
