
                                 *****************
                                 * O   R   C   A *
                                 *****************

                                            #,                                       
                                            ###                                      
                                            ####                                     
                                            #####                                    
                                            ######                                   
                                           ########,                                 
                                     ,,################,,,,,                         
                               ,,#################################,,                 
                          ,,##########################################,,             
                       ,#########################################, ''#####,          
                    ,#############################################,,   '####,        
                  ,##################################################,,,,####,       
                ,###########''''           ''''###############################       
              ,#####''   ,,,,##########,,,,          '''####'''          '####       
            ,##' ,,,,###########################,,,                        '##       
           ' ,,###''''                  '''############,,,                           
         ,,##''                                '''############,,,,        ,,,,,,###''
      ,#''                                            '''#######################'''  
     '                                                          ''''####''''         
             ,#######,   #######,   ,#######,      ##                                
            ,#'     '#,  ##    ##  ,#'     '#,    #''#        ,####,    ,#,          
            ##       ##  ##   ,#'  ##            #'  '#       #'       ,# #          
            ##       ##  #######   ##           ,######,      #####,      #          
            '#,     ,#'  ##    ##  '#,     ,#' ,#      #,     #,   #      #          
             '#######'   ##     ##  '#######'  #'      '#     '####' #    #          



                #########################################################
                #                        -***-                          #
                #          Department of theory and spectroscopy        #
                #                                                       #
                #                      Frank Neese                      #
                #                                                       #
                #     Directorship, Architecture, Infrastructure        #
                #                    SHARK, DRIVERS                     #
                #        Core code/Algorithms in most modules           #
                #                                                       #
                #        Max Planck Institute fuer Kohlenforschung      #
                #                Kaiser Wilhelm Platz 1                 #
                #                 D-45470 Muelheim/Ruhr                 #
                #                      Germany                          #
                #                                                       #
                #                  All rights reserved                  #
                #                        -***-                          #
                #########################################################


                         Program Version 6.1.1  -  RELEASE   -
                                (GIT: $487d211c$)
                          ($2025-11-21 10:33:24 +0100$)
                                                                         
                                  - NO-DMRG VERSION -                    
                                                                         


 With contributions from (in alphabetic order):
[Max-Planck-Institut fuer Kohlenforschung]                               
  Daniel Aravena         : Magnetic Suceptibility                        
  Michael Atanasov       : Ab Initio Ligand Field Theory (pilot matlab implementation)
  Alexander A. Auer      : GIAO ZORA, VPT2 properties, NMR spectrum      
  Ute Becker             : All parallelization in ORCA, NUMFREQ, NUMCALC 
  Giovanni Bistoni       : ED, misc. LED, open-shell LED, HFLD           
  Dmytro Bykov           : pre 5.0 version of the SCF Hessian            
  Marcos Casanova-Páez   : Triplet and SCS-CIS(D). UHF-(DLPNO)-IP/EA/STEOM-CCSD. UHF-CVS-IP/STEOM-CCSD   
  Vijay G. Chilkuri      : MRCI spin determinant printing, contributions to CSF-ICE 
  Pauline Colinet        : FMM embedding                                 
  Dipayan Datta          : RHF DLPNO-CCSD density                        
  Achintya Kumar Dutta   : EOM-CC, STEOM-CC                              
  Nicolas Foglia         : Exact transition moments, OPA infrastructure, MCD improvements    
  Dmitry Ganyushin       : Spin-Orbit,Spin-Spin,Magnetic field MRCI      
  Miquel Garcia-Rates    : C-PCM and meta-GGA Hessian, CCSD/C-PCM, Gaussian charge scheme 
  Tiago L. C. Gouveia    : GS-ROHF, GS-ROCIS                             
  Yang Guo               : DLPNO-NEVPT2, F12-NEVPT2, CIM, IAO-localization        
  Andreas Hansen         : Spin unrestricted coupled pair/coupled cluster methods 
  Ingolf Harden          : AUTO-CI MPn and infrastructure                
  Benjamin Helmich-Paris : MC-RPA, TRAH-(SCF,CASSCF), AVAS, COSX integrals, SCF dyn. polar., MC-PDFT, srDFT 
  Lee Huntington         : MR-EOM, pCC                                   
  Robert Izsak           : Overlap fitted RIJCOSX, COSX-SCS-MP3, EOM     
  Riya Kayal             : Wick's Theorem for AUTO-CI, AUTO-CI UHF-CCSDT 
  Emily Kempfer          : AUTO-CI RHF CISDT and CCSDT, approximate NEVPT4
  Christian Kollmar      : KDIIS, OOCD, Brueckner-CCSD(T), CCSD density, CASPT2, CASPT2-K, improved NEVPT2 
  Axel Koslowski         : Symmetry handling                             
  Simone Kossmann        : meta-GGA functionals, TD-DFT gradient, OOMP2, (MP2 Hessian; deprecated post 5.0) 
  Lucas Lang             : DCDCAS, Hyperfine gauge corrections, ICE-SOC+SSC
  Marvin Lechner         : AUTO-CI (C++ implementation), FIC-MRCC        
  Spencer Leger          : CASSCF response                               
  Dagmar Lenk            : GEPOL surface, SMD, ORCA-2-JSON               
  Dimitrios Liakos       : Extrapolation schemes; Compound Job, Property file
  Dimitrios Manganas     : Further ROCIS development; embedding schemes. LFT, Crystal Embedding 
  Dimitrios Pantazis     : SARC Basis sets                               
  Anastasios Papadopoulos: AUTO-CI, single reference methods and gradients 
  Taras Petrenko         : pre 6.0 DFT Hessian and TD-DFT gradient,  ECA, NRVS 
  Petra Pikulova         : Analytic Raman intensities                    
  Peter Pinski           : DLPNO-MP2, DLPNO-MP2 Gradient                 
  Shashank Vittal Rao    : ES-AILFT, MagRelax                            
  Christoph Reimann      : Effective Core Potentials                     
  Marius Retegan         : Local ZFS, SOC                                
  Christoph Riplinger    : Optimizer, TS searches, QM/MM, DLPNO-CCSD(T), (RO)-DLPNO pert. Triples 
  Michael Roemelt        : Original ROCIS implementation, recursive CI coupling coefficients
  Masaaki Saitow         : Open-shell DLPNO-CCSD energy and density      
  Barbara Sandhoefer     : DKH picture change effects                    
  Yorick L. A. Schmerwitz: GMF and freeze-and-release deltaSCF, NEB S-IDPP initial path                    
  Kantharuban Sivalingam : CASSCF convergence/infrastructure, NEVPT2, NEVPT3, NEVPT4(SD), FIC-MRCI and CEPA variants
  Bernardo de Souza      : ESD, SOC TD-DFT                               
  Georgi L. Stoychev     : AutoAux, RI-MP2 NMR, DLPNO-MP2 response, X2C  
  Van Anh Tran           : RI-MP2 g-tensors                              
  Willem Van den Heuvel  : Paramagnetic NMR                              
  Zikuan Wang            : NOTCH, Electric field optimization            
  Frank Wennmohs         : Technical directorship and infrastructure     
  Hang Xu                : AUTO-CI-Response properties                   
                                                                         
[FACCTs GmbH]                                                            
  Markus Bursch, Nicolas Foglia, Miquel Garcia-Rates, Ingolf Harden, Hagen Neugebauer, Anastasios Papadopoulos, 
  Christoph Riplinger, Bernardo de Souza, Georgi L. Stoychev                                                    
                                                                 
  APM, various basis sets, CI-OPT, improved COSX, DLPNO-Multilevel,           
  DOCKER, DRACO, updates on ESD, Fragmentator, GOAT, IRC, LR-CPCM, L-BFGS, MBIS, meta-GGA TD-DFT gradient, ML-optimized integration grids, 
  MM, NACMEs, nearIR, NEB, NEB-TS, NL-DFT gradient (VV10), 2- and 3-layer-ONIOM, interface openCOSMO-RS, QMMM,   
  Crystal-QMMM, RESP, rigid body optimization, SF, symmetry and pop. for TD-DFT, various functionals, SOLVATOR                                   
                                                                         
[Other institutions]                                                     
  V. Asgeirsson          : NEB                                           
  Christoph Bannwarth    : sTDA-DFT, sTD-DFT, PBEh-3c, B97-3c, D3        
  Giovanni Bistoni       : ETS/NOCV, ADLD/ADEX, COVALED                  
  Martin Brehm           : Molecular dynamics                            
  Ronald Cardenas        : ETS/NOCV                                      
  Martina Colucci        : COVALED                                       
  Sebastian Ehlert       : rSCAN, r2SCAN, r2SCAN-3c, D4, dhf basis sets  
  Marvin Friede          : D4 for Fr, Ra, Ac-Lr                          
  Lars Goerigk           : TD-DFT with DH, B97 family of functionals     
  Stefan Grimme          : VdW corrections, initial TS optimization, DFT functionals, gCP, sTDA/sTD-DF 
  Waldemar Hujo          : DFT-NL                                        
  H. Jonsson             : NEB                                           
  Holger Kruse           : gCP                                           
  Marcel Mueller         : wB97X-3c, vDZP basis set                      
  Hagen Neugebauer       : wr2SCAN, Native XTB                           
  Gianluca Regni         : ADLD/ADEX                                     
  Tobias Risthaus        : pre 6.0 range-separated hybrid DFT and stability analysis
  Lukas Wittmann         : regularized MP2, r2SCAN double-hybrids, wr2SCAN        
                                                                         
We gratefully acknowledge several colleagues who have allowed us to      
interface, adapt or use parts of their codes:                            
  Ed Valeev, F. Pavosevic, A. Kumar             : LibInt (2-el integral package), F12 methods 
  Garnet Chan, S. Sharma, J. Yang, R. Olivares  : DMRG                   
  Ulf Ekstrom                                   : XCFun DFT Library      
  Mihaly Kallay                                 : mrcc  (arbitrary order and MRCC methods)
  Frank Weinhold                                : gennbo (NPA and NBO analysis)           
  Simon Mueller                                 : openCOSMO-RS                            
  Christopher J. Cramer and Donald G. Truhlar   : smd solvation model                     
  S Lehtola, MJT Oliveira, MAL Marques          : LibXC Library                           
  Liviu Ungur et al                             : ANISO software                          


 Your calculation uses the libint2 library for the computation of 2-el integrals
 For citations please refer to: http://libint.valeyev.net

 Your ORCA version has been built with support for libXC version: 7.0.0
 For citations please refer to: https://libxc.gitlab.io

 This ORCA versions uses:
   CBLAS   interface :  Fast vector & matrix operations
   LAPACKE interface :  Fast linear algebra routines
   SCALAPACK package :  Parallel linear algebra routines
   Shared memory     :  Shared parallel matrices
   BLAS/LAPACK       :  OpenBLAS 0.3.29  USE64BITINT DYNAMIC_ARCH NO_AFFINITY Haswell SINGLE_THREADED
        Core in use  :  Haswell
   Copyright (c) 2011-2014, The OpenBLAS Project


  ***********************************
  * Starting time: Sat Mar 28 20:18:14 2026
  * Host name:     4491f97e0b89
  * Process ID:    599
  * Working dir.:  /kaggle/working
  ***********************************

NOTE: MaxCore=3000 MB was set to SCF,MP2,MDCI,CIPSI,MRCI,RASCI and CIS
      => If you want to overwrite this, your respective input block should be placed after the MaxCore statement
Your calculation utilizes the atom-pairwise dispersion correction
with the Becke-Johnson damping scheme (D3BJ)


Warning: RI is on but no J-basis has been assigned. Assigning Def2/J (nothing to worry about!)
================================================================================

----- Orbital basis set information -----
Your calculation utilizes the basis: 6-31G(d,p)
   H-He, Li-Ne : W. J. Hehre, R. Ditchfield and J.A. Pople, J. Chem. Phys. 56, 2257 (1972).
                 Note: He and Ne are unpublished basis sets taken from the Gaussian program.
                 Note: Li and B from J. D. Dill and J. A. Pople, J. Chem. Phys. 62, 2921 (1975).
   Na - Ar     : M. M. Francl, W. J. Pietro, W. J. Hehre, J. S. Binkley, M. S. Gordon, 
                 D. J. DeFrees and J. A. Pople, J. Chem. Phys. 77, 3654 (1982).
   K - Zn      : V. A. Rassolov, J. A. Pople, M. A. Ratner, and T. L. Windus, J. Chem. Phys. 109, 1223 (1998).

----- AuxJ basis set information -----
Your calculation utilizes the auxiliary basis: def2/J
   H-Rn: F. Weigend, Phys. Chem. Chem. Phys. 8, 1057 (2006).
   Fr-Lr: K. Eichkorn, F. Weigend, O. Treutler, R. Ahlrichs; Theor. Chem. Acc. 97, 119 (1997).

================================================================================
                                        WARNINGS
                       Please study these warnings very carefully!
================================================================================


================================================================================
                                       INPUT FILE
================================================================================
NAME = /kaggle/working/Tyr-2/Tyr_InterFrag.inp
|  1> 
|  2> !RKS B3LYP 6-31G(d,p) TightSCF D3BJ # def2-TZVPP
|  3> 
|  4> %pal nprocs 2 end
|  5> %maxcore 3000
|  6> 
|  7> %elprop
|  8>   Polar 1      # polarizability via CP-SCF
|  9> end
| 10> 
| 11> %output
| 12>   PrintLevel Normal
| 13>   Print[ P_OrbEn ] 2
| 14> end
| 15> 
| 16> *xyz 0 1
| 17>   O     -1.514037   -1.231605   -1.410394
| 18>   O      4.107992   -0.879292   -0.418773
| 19>   O     -2.805283   -1.377559    0.432144
| 20>   N     -3.453678    1.337343   -0.066994
| 21>   C     -1.065607    1.196638    0.761647
| 22>   C     -2.110475    0.811308   -0.322777
| 23>   C      0.317092    0.656068    0.493780
| 24>   C      0.730456   -0.568361    1.035022
| 25>   C      1.203027    1.334360   -0.355696
| 26>   C     -2.200809   -0.700457   -0.385085
| 27>   C      1.986717   -1.101793    0.747063
| 28>   C      2.461613    0.816449   -0.653480
| 29>   C      2.855349   -0.406828   -0.099863
| 30>   H     -1.439448    0.833054    1.725440
| 31>   H     -1.047624    2.291060    0.802624
| 32>   H     -1.759465    1.176746   -1.290809
| 33>   H      0.058901   -1.115737    1.691336
| 34>   H      0.903986    2.285593   -0.788493
| 35>   H     -3.364551    2.339989    0.091523
| 36>   H     -3.767565    0.947744    0.821890
| 37>   H      2.297087   -2.050684    1.176899
| 38>   H      3.145977    1.347924   -1.307412
| 39>   H     -1.574276   -2.203181   -1.343903
| 40>   H      4.247023   -1.727382    0.029613
| 41> 
| 42> *
| 43> 
| 44>                          ****END OF INPUT****
================================================================================

                       ****************************
                       * Single Point Calculation *
                       ****************************

---------------------------------
CARTESIAN COORDINATES (ANGSTROEM)
---------------------------------
  O     -1.514037   -1.231605   -1.410394
  O      4.107992   -0.879292   -0.418773
  O     -2.805283   -1.377559    0.432144
  N     -3.453678    1.337343   -0.066994
  C     -1.065607    1.196638    0.761647
  C     -2.110475    0.811308   -0.322777
  C      0.317092    0.656068    0.493780
  C      0.730456   -0.568361    1.035022
  C      1.203027    1.334360   -0.355696
  C     -2.200809   -0.700457   -0.385085
  C      1.986717   -1.101793    0.747063
  C      2.461613    0.816449   -0.653480
  C      2.855349   -0.406828   -0.099863
  H     -1.439448    0.833054    1.725440
  H     -1.047624    2.291060    0.802624
  H     -1.759465    1.176746   -1.290809
  H      0.058901   -1.115737    1.691336
  H      0.903986    2.285593   -0.788493
  H     -3.364551    2.339989    0.091523
  H     -3.767565    0.947744    0.821890
  H      2.297087   -2.050684    1.176899
  H      3.145977    1.347924   -1.307412
  H     -1.574276   -2.203181   -1.343903
  H      4.247023   -1.727382    0.029613

----------------------------
CARTESIAN COORDINATES (A.U.)
----------------------------
  NO LB      ZA    FRAG     MASS         X           Y           Z
   0 O     8.0000    0    15.999   -2.861115   -2.327396   -2.665258
   1 O     8.0000    0    15.999    7.762980   -1.661621   -0.791366
   2 O     8.0000    0    15.999   -5.301217   -2.603209    0.816634
   3 N     7.0000    0    14.007   -6.526506    2.527212   -0.126600
   4 C     6.0000    0    12.011   -2.013705    2.261318    1.439304
   5 C     6.0000    0    12.011   -3.988220    1.533150   -0.609960
   6 C     6.0000    0    12.011    0.599217    1.239789    0.933109
   7 C     6.0000    0    12.011    1.380362   -1.074047    1.955908
   8 C     6.0000    0    12.011    2.273392    2.521575   -0.672168
   9 C     6.0000    0    12.011   -4.158926   -1.323672   -0.727705
  10 C     6.0000    0    12.011    3.754351   -2.082087    1.411744
  11 C     6.0000    0    12.011    4.651774    1.542865   -1.234898
  12 C     6.0000    0    12.011    5.395828   -0.768794   -0.188714
  13 H     1.0000    0     1.008   -2.720163    1.574244    3.260609
  14 H     1.0000    0     1.008   -1.979722    4.329476    1.516740
  15 H     1.0000    0     1.008   -3.324907    2.223728   -2.439276
  16 H     1.0000    0     1.008    0.111307   -2.108437    3.196162
  17 H     1.0000    0     1.008    1.708286    4.319145   -1.490036
  18 H     1.0000    0     1.008   -6.358080    4.421938    0.172953
  19 H     1.0000    0     1.008   -7.119666    1.790977    1.553147
  20 H     1.0000    0     1.008    4.340865   -3.875231    2.224017
  21 H     1.0000    0     1.008    5.945035    2.547207   -2.470651
  22 H     1.0000    0     1.008   -2.974950   -4.163409   -2.539609
  23 H     1.0000    0     1.008    8.025710   -3.264279    0.055960

--------------------------------
INTERNAL COORDINATES (ANGSTROEM)
--------------------------------
 O      0   0   0     0.000000000000     0.00000000     0.00000000
 O      1   0   0     5.719671907938     0.00000000     0.00000000
 O      1   2   0     2.254676270349   115.16509917     0.00000000
 N      3   1   2     2.835533051945    85.70593687   104.64206735
 C      4   3   1     2.531664848464    70.94182947   288.14868847
 C      4   3   1     1.465036539996    58.48631119   323.53016218
 C      5   4   3     1.508583832337   145.72717472    61.79259444
 C      7   5   4     1.401084963555   120.99539408   266.70374889
 C      7   5   4     1.402344585352   120.88230364    83.65807609
 C      3   1   2     1.221359559475    29.98789974    85.39614607
 C      8   7   5     1.394869809131   121.34375022   177.29522361
 C      9   7   5     1.393178320953   121.35829718   182.67190306
 C      2   1   3     1.376241368672    33.55738046   311.88939017
 H      5   4   3     1.095831814279    89.11268445   295.00895974
 H      5   4   3     1.095336485698    88.40695860   187.26318208
 H      6   4   3     1.092629353884   109.21591960   135.55916419
 H      8   7   5     1.086901407671   119.41220591   357.41059564
 H      9   7   5     1.087006431986   119.38363500     2.89039950
 H      4   3   1     1.019004545002   153.47033202   259.60961187
 H      4   3   1     1.020013330808    63.33726688   189.27217634
 H     11   8   7     1.086960281554   120.62226441   179.73219164
 H     12   9   7     1.085562905015   121.08268520   180.33339961
 H      1   2   3     0.975709851328    96.32718379   276.93671862
 H      2   1   3     0.969348374970    99.62984109    61.65656499

---------------------------
INTERNAL COORDINATES (A.U.)
---------------------------
 O      0   0   0     0.000000000000     0.00000000     0.00000000
 O      1   0   0    10.808613481885     0.00000000     0.00000000
 O      1   2   0     4.260720671611   115.16509917     0.00000000
 N      3   1   2     5.358380911858    85.70593687   104.64206735
 C      4   3   1     4.784153226472    70.94182947   288.14868847
 C      4   3   1     2.768517836780    58.48631119   323.53016218
 C      5   4   3     2.850810293179   145.72717472    61.79259444
 C      7   5   4     2.647666871475   120.99539408   266.70374889
 C      7   5   4     2.650047211702   120.88230364    83.65807609
 C      3   1   2     2.308035078454    29.98789974    85.39614607
 C      8   7   5     2.635921931733   121.34375022   177.29522361
 C      9   7   5     2.632725482317   121.35829718   182.67190306
 C      2   1   3     2.600719280964    33.55738046   311.88939017
 H      5   4   3     2.070822017825    89.11268445   295.00895974
 H      5   4   3     2.069885982462    88.40695860   187.26318208
 H      6   4   3     2.064770244723   109.21591960   135.55916419
 H      8   7   5     2.053945995072   119.41220591   357.41059564
 H      9   7   5     2.054144462264   119.38363500     2.89039950
 H      4   3   1     1.925639519274   153.47033202   259.60961187
 H      4   3   1     1.927545848176    63.33726688   189.27217634
 H     11   8   7     2.054057250588   120.62226441   179.73219164
 H     12   9   7     2.051416591623   121.08268520   180.33339961
 H      1   2   3     1.843824405178    96.32718379   276.93671862
 H      2   1   3     1.831802957055    99.62984109    61.65656499

---------------------
BASIS SET INFORMATION
---------------------
There are 4 groups of distinct atoms

 Group   1 Type O   : 10s4p1d contracted to 3s2p1d pattern {631/31/1}
 Group   2 Type N   : 10s4p1d contracted to 3s2p1d pattern {631/31/1}
 Group   3 Type C   : 10s4p1d contracted to 3s2p1d pattern {631/31/1}
 Group   4 Type H   : 4s1p contracted to 2s1p pattern {31/1}

Atom   0O    basis set group =>   1
Atom   1O    basis set group =>   1
Atom   2O    basis set group =>   1
Atom   3N    basis set group =>   2
Atom   4C    basis set group =>   3
Atom   5C    basis set group =>   3
Atom   6C    basis set group =>   3
Atom   7C    basis set group =>   3
Atom   8C    basis set group =>   3
Atom   9C    basis set group =>   3
Atom  10C    basis set group =>   3
Atom  11C    basis set group =>   3
Atom  12C    basis set group =>   3
Atom  13H    basis set group =>   4
Atom  14H    basis set group =>   4
Atom  15H    basis set group =>   4
Atom  16H    basis set group =>   4
Atom  17H    basis set group =>   4
Atom  18H    basis set group =>   4
Atom  19H    basis set group =>   4
Atom  20H    basis set group =>   4
Atom  21H    basis set group =>   4
Atom  22H    basis set group =>   4
Atom  23H    basis set group =>   4
---------------------------------
AUXILIARY/J BASIS SET INFORMATION
---------------------------------
There are 4 groups of distinct atoms

 Group   1 Type O   : 12s5p4d2f1g contracted to 6s4p3d1f1g pattern {711111/2111/211/2/1}
 Group   2 Type N   : 12s5p4d2f1g contracted to 6s4p3d1f1g pattern {711111/2111/211/2/1}
 Group   3 Type C   : 12s5p4d2f1g contracted to 6s4p3d1f1g pattern {711111/2111/211/2/1}
 Group   4 Type H   : 5s2p1d contracted to 3s1p1d pattern {311/2/1}

Atom   0O    basis set group =>   1
Atom   1O    basis set group =>   1
Atom   2O    basis set group =>   1
Atom   3N    basis set group =>   2
Atom   4C    basis set group =>   3
Atom   5C    basis set group =>   3
Atom   6C    basis set group =>   3
Atom   7C    basis set group =>   3
Atom   8C    basis set group =>   3
Atom   9C    basis set group =>   3
Atom  10C    basis set group =>   3
Atom  11C    basis set group =>   3
Atom  12C    basis set group =>   3
Atom  13H    basis set group =>   4
Atom  14H    basis set group =>   4
Atom  15H    basis set group =>   4
Atom  16H    basis set group =>   4
Atom  17H    basis set group =>   4
Atom  18H    basis set group =>   4
Atom  19H    basis set group =>   4
Atom  20H    basis set group =>   4
Atom  21H    basis set group =>   4
Atom  22H    basis set group =>   4
Atom  23H    basis set group =>   4


           ************************************************************
           *        Program running with 2 parallel MPI-processes     *
           *              working on a common directory               *
           ************************************************************
------------------------------------------------------------------------------
                             ORCA STARTUP CALCULATIONS
                           -- RI-GTO INTEGRALS CHOSEN --
------------------------------------------------------------------------------
------------------------------------------------------------------------------
                   ___                                                        
                  /   \      - P O W E R E D   B Y -                         
                 /     \                                                     
                 |  |  |   _    _      __       _____    __    __             
                 |  |  |  | |  | |    /  \     |  _  \  |  |  /  |          
                  \  \/   | |  | |   /    \    | | | |  |  | /  /          
                 / \  \   | |__| |  /  /\  \   | |_| |  |  |/  /          
                |  |  |   |  __  | /  /__\  \  |    /   |      \           
                |  |  |   | |  | | |   __   |  |    \   |  |\   \          
                \     /   | |  | | |  |  |  |  | |\  \  |  | \   \       
                 \___/    |_|  |_| |__|  |__|  |_| \__\ |__|  \__/        
                                                                              
                      - O R C A' S   B I G   F R I E N D -                    
                                      &                                       
                       - I N T E G R A L  F E E D E R -                       
                                                                              
 v1 FN, 2020, v2 2021, v3 2022-2024                                           
------------------------------------------------------------------------------


----------------------
SHARK INTEGRAL PACKAGE
----------------------

Number of atoms                             ...     24
Number of basis functions                   ...    237
Number of shells                            ...    111
Maximum angular momentum                    ...      2
Integral batch strategy                     ... SHARK/LIBINT Hybrid
RI-J (if used) integral strategy            ... SPLIT-RIJ (Revised 2003 algorithm where possible)
Printlevel                                  ...      1
Contraction scheme used                     ... SEGMENTED contraction
Prescreening option                         ... SCHWARTZ
   Thresh                                   ... 2.500e-11
   Tcut                                     ... 2.500e-12
   Tpresel                                  ... 2.500e-12 
Coulomb Range Separation                    ... NOT USED
Exchange Range Separation                   ... NOT USED
Multipole approximations                    ... NOT USED
Finite Nucleus Model                        ... NOT USED
CABS basis                                  ... NOT available
Auxiliary Coulomb fitting basis             ... AVAILABLE
   # of basis functions in Aux-J            ...    758
   # of shells in Aux-J                     ...    250
   Maximum angular momentum in Aux-J        ...      4
Auxiliary J/K fitting basis                 ... NOT available
Auxiliary Correlation fitting basis         ... NOT available
Auxiliary 'external' fitting basis          ... NOT available

Checking pre-screening integrals            ... done (  0.0 sec) Dimension = 111
   => SHARK Basis and OBASIS are compatible. Storing Pre-screening
Shell pair information
Shell pair cut-off parameter TPreSel        ...   2.5e-12
Total number of shell pairs                 ...      6216
Shell pairs after pre-screening             ...      5190
Total number of primitive shell pairs       ...     31681
Primitive shell pairs kept                  ...     16379
          la=0 lb=0:   1570 shell pairs
          la=1 lb=0:   1892 shell pairs
          la=1 lb=1:    602 shell pairs
          la=2 lb=0:    648 shell pairs
          la=2 lb=1:    402 shell pairs
          la=2 lb=2:     76 shell pairs

Checking whether 4 symmetric matrices of dimension 237 fit in memory
:Max Core in MB      =   3000.00
 MB in use           =     10.46
 MB left             =   2989.54
 MB needed           =      0.86
 Data fit in memory  = YES
Calculating RI/J V-Matrix + Cholesky decomp.... done (  0.0 sec)
Calculating Nuclear repulsion               ... done (  0.0 sec) ENN=    783.386634076911 Eh

Diagonalization of the overlap matrix:
Smallest eigenvalue                        ... 4.560e-04
Time for diagonalization                   ...    0.009 sec
Threshold for overlap eigenvalues          ... 1.000e-07
Number of eigenvalues below threshold      ... 0
Time for construction of square roots      ...    0.003 sec
Total time needed                          ...    0.013 sec

-------------------
DFT GRID GENERATION
-------------------

General Integration Accuracy     IntAcc      ... 4.388
Radial Grid Type                 RadialGrid  ... OptM3 with GC (2021)
Angular Grid (max. ang.)         AngularGrid ... 4 (Lebedev-302)
Angular grid pruning method      GridPruning ... 4 (adaptive)
Weight generation scheme         WeightScheme... mBecke (2022)
Basis function cutoff            BFCut       ... 1.0000e-11
Integration weight cutoff        WCut        ... 1.0000e-14
Partially contracted basis set               ... off
Rotationally invariant grid construction     ... off
Angular grids for H and He will be reduced by one unit

Total number of grid points                  ...   113301
Total number of batches                      ...     1782
Average number of points per batch           ...       63
Average number of grid points per atom       ...     4721

--------------------
COSX GRID GENERATION
--------------------

GRIDX 1
-------
General Integration Accuracy     IntAcc      ... 3.816
Radial Grid Type                 RadialGrid  ... OptM3 with GC (2021)
Angular Grid (max. ang.)         AngularGrid ... 1 (Lebedev-50)
Angular grid pruning method      GridPruning ... 4 (adaptive)
Weight generation scheme         WeightScheme... mBecke (2022)
Basis function cutoff            BFCut       ... 1.0000e-11
Integration weight cutoff        WCut        ... 1.0000e-14
Partially contracted basis set               ... on
Rotationally invariant grid construction     ... off
Angular grids for H and He will be reduced by one unit

Total number of grid points                  ...    14379
Total number of batches                      ...      127
Average number of points per batch           ...      113
Average number of grid points per atom       ...      599
UseSFitting                                  ... on

GRIDX 2
-------
General Integration Accuracy     IntAcc      ... 4.020
Radial Grid Type                 RadialGrid  ... OptM3 with GC (2021)
Angular Grid (max. ang.)         AngularGrid ... 2 (Lebedev-110)
Angular grid pruning method      GridPruning ... 4 (adaptive)
Weight generation scheme         WeightScheme... mBecke (2022)
Basis function cutoff            BFCut       ... 1.0000e-11
Integration weight cutoff        WCut        ... 1.0000e-14
Partially contracted basis set               ... on
Rotationally invariant grid construction     ... off
Angular grids for H and He will be reduced by one unit

Total number of grid points                  ...    31361
Total number of batches                      ...      259
Average number of points per batch           ...      121
Average number of grid points per atom       ...     1307
UseSFitting                                  ... on

GRIDX 3
-------
General Integration Accuracy     IntAcc      ... 4.338
Radial Grid Type                 RadialGrid  ... OptM3 with GC (2021)
Angular Grid (max. ang.)         AngularGrid ... 3 (Lebedev-194)
Angular grid pruning method      GridPruning ... 4 (adaptive)
Weight generation scheme         WeightScheme... mBecke (2022)
Basis function cutoff            BFCut       ... 1.0000e-11
Integration weight cutoff        WCut        ... 1.0000e-14
Partially contracted basis set               ... on
Rotationally invariant grid construction     ... off
Angular grids for H and He will be reduced by one unit

Total number of grid points                  ...    68791
Total number of batches                      ...      548
Average number of points per batch           ...      125
Average number of grid points per atom       ...     2866
UseSFitting                                  ... on
Grids setup in   2.8 sec
Initializing property integral containers    ... done (  0.0 sec)

SHARK setup successfully completed in   3.0 seconds

Maximum memory used throughout the entire STARTUP-calculation: 38.6 MB


           ************************************************************
           *        Program running with 2 parallel MPI-processes     *
           *              working on a common directory               *
           ************************************************************
-------------------------------------------------------------------------------
                                 ORCA GUESS
                   Start orbitals & Density for SCF / CASSCF
-------------------------------------------------------------------------------

------------
SCF SETTINGS
------------
Hamiltonian:
 Density Functional     Method          .... DFT(GTOs)
 Exchange Functional    Exchange        .... B88
   X-Alpha parameter    XAlpha          ....  0.666667
   Becke's b parameter  XBeta           ....  0.004200
 Correlation Functional Correlation     .... LYP
 LDA part of GGA corr.  LDAOpt          .... VWN-5
 Gradients option       PostSCFGGA      .... off
 Hybrid DFT is turned on
   Fraction HF Exchange ScalHFX         ....  0.200000
   Scaling of DF-GGA-X  ScalDFX         ....  0.720000
   Scaling of DF-GGA-C  ScalDFC         ....  0.810000
   Scaling of DF-LDA-C  ScalLDAC        ....  1.000000
   Perturbative correction              ....  0.000000
   NL short-range parameter             ....  4.800000
 RI-approximation to the Coulomb term is turned on
   Number of AuxJ basis functions       .... 758
   RIJ-COSX (HFX calculated with COS-X)).... on


General Settings:
 Integral files         IntName         .... /kaggle/working/Tyr-2/Tyr_InterFrag
 Hartree-Fock type      HFTyp           .... RHF
 Total Charge           Charge          ....    0
 Multiplicity           Mult            ....    1
 Number of Electrons    NEL             ....   96
 Basis Dimension        Dim             ....  237
 Nuclear Repulsion      ENuc            ....    783.3866340769 Eh

Convergence Acceleration:
 AO-DIIS                CNVDIIS         .... on
   Start iteration      DIISMaxIt       ....    12
   Startup error        DIISStart       ....  0.200000
   # of expansion vecs  DIISMaxEq       ....     5
   Bias factor          DIISBfac        ....   1.050
   Max. coefficient     DIISMaxC        ....  10.000
 MO-DIIS                CNVKDIIS        .... off
 Trust-Rad. Augm. Hess. CNVTRAH         .... auto
   Auto Start mean grad. ratio tolernc. ....  1.125000
   Auto Start start iteration           ....    50
   Auto Start num. interpolation iter.  ....    10
   Max. Number of Micro iterations      ....    24
   Max. Number of Macro iterations      .... Maxiter - #DIIS iter
   Number of Davidson start vectors     ....     2
   Converg. threshold    (grad. norm)   ....   1.000e-05
   Grad. Scal. Fac. for Micro threshold ....   0.100
   Minimum threshold for Micro iter.    ....   1.000e-02
   NR start threshold (gradient norm)   ....   1.000e-04
   Initial trust radius                 ....   0.400
   Minimum AH scaling param. (alpha)    ....   1.000
   Maximum AH scaling param. (alpha)    .... 1000.000
   Quad. conv. algorithm                .... NR
   White noise on init. David. guess    .... on
   Maximum white noise                  ....   0.010
   Pseudo random numbers                .... off
   Inactive MOs                         .... canonical
   Orbital update algorithm             .... Taylor
   Preconditioner                       .... Diag
   Full preconditioner red. dimension   ....   250
 SOSCF                 CNVSOSCF           .... on
   Start iteration     SOSCFMaxIt         ....   150
   Startup grad/error  SOSCFStart         ....  0.003300
   Hessian update      SOSCFHessUp        .... L-BFGS
   Autom. constraints  SOSCFAutoConstrain .... off
 Level Shifting         CNVShift        .... on
   Level shift para.    LevelShift      ....    0.2500
   Turn off err/grad.   ShiftErr        ....    0.0010
 Zerner damping         CNVZerner       .... off
 Static damping         CNVDamp         .... on
   Fraction old density DampFac         ....    0.7000
   Max. Damping (<1)    DampMax         ....    0.9800
   Min. Damping (>=0)   DampMin         ....    0.0000
   Turn off err/grad.   DampErr         ....    0.1000

SCF Procedure:
 Maximum # iterations   MaxIter         ....   125
 SCF integral mode      SCFMode         .... Direct
   Integral package                     .... SHARK and LIBINT hybrid scheme
 Reset frequency        DirectResetFreq ....    20
 Integral Threshold     Thresh          ....  2.500e-11 Eh
 Primitive CutOff       TCut            ....  2.500e-12 Eh

Convergence Tolerance:
 Convergence Check Mode ConvCheckMode   .... Total+1el-Energy
 Convergence forced     ConvForced      .... 0
 Energy Change          TolE            ....  1.000e-08 Eh
 1-El. energy change                    ....  1.000e-05 Eh
 Orbital Gradient       TolG            ....  1.000e-05
 Orbital Rotation angle TolX            ....  1.000e-05
 DIIS Error             TolErr          ....  5.000e-07

------------------------------
INITIAL GUESS: MODEL POTENTIAL
------------------------------
Loading Hartree-Fock densities                     ... done
Calculating cut-offs                               ... done
Initializing the effective Hamiltonian             ... done
Setting up the integral package (SHARK)            ... done
Starting the Coulomb interaction                   ... done (   0.2 sec)
Making the grid                                    ... done (   0.4 sec)
Mapping shells                                     ... done
Starting the XC term evaluation                    ... done (   0.2 sec)
  promolecular density results
     # of electrons  =     95.992314812
     EX              =    -80.722825102
     EC              =     -3.286426612
     EX+EC           =    -84.009251714
Transforming the Hamiltonian                       ... done (   0.0 sec)
Diagonalizing the Hamiltonian                      ... done (   0.0 sec)
Back transforming the eigenvectors                 ... done (   0.0 sec)
Now organizing SCF variables                       ... done
                      ------------------
                      INITIAL GUESS DONE (   0.9 sec)
                      ------------------
             **** ENERGY FILE WAS UPDATED (/kaggle/working/Tyr-2/Tyr_InterFrag.en.tmp) ****
Finished Guess after   1.2 sec
Maximum memory used throughout the entire GUESS-calculation: 15.2 MB


           ************************************************************
           *        Program running with 2 parallel MPI-processes     *
           *              working on a common directory               *
           ************************************************************

-------------------------------------------------------------------------------------------
                                      ORCA LEAN-SCF
                              memory conserving SCF solver
-------------------------------------------------------------------------------------------

----------------------------------------D-I-I-S--------------------------------------------
Iteration    Energy (Eh)           Delta-E    RMSDP     MaxDP     DIISErr   Damp  Time(sec)
-------------------------------------------------------------------------------------------
               ***  Starting incremental Fock matrix formation  ***
    1    -629.2557593553887045     0.00e+00  4.02e-03  9.25e-02  2.61e-01  0.700   7.0
    2    -629.4465136808008765    -1.91e-01  2.71e-03  5.13e-02  1.13e-01  0.700   3.6
                               ***Turning on AO-DIIS***
    3    -629.5198792885884131    -7.34e-02  1.07e-03  1.74e-02  3.97e-02  0.700   3.5
    4    -629.5642625752728918    -4.44e-02  1.66e-03  2.35e-02  1.84e-02  0.000   3.4
    5    -629.6617489817587057    -9.75e-02  3.91e-04  8.70e-03  7.09e-03  0.000   3.4
                              *** Initializing SOSCF ***
---------------------------------------S-O-S-C-F--------------------------------------
Iteration    Energy (Eh)           Delta-E    RMSDP     MaxDP     MaxGrad    Time(sec)
--------------------------------------------------------------------------------------
    6    -629.6623429016739237    -5.94e-04  1.20e-04  2.26e-03  2.06e-03     3.2
               *** Restarting incremental Fock matrix formation ***
    7    -629.6623695338274729    -2.66e-05  7.67e-05  1.45e-03  2.81e-04     7.1
    8    -629.6623688211114995     7.13e-07  2.95e-05  7.16e-04  4.00e-04     5.0
    9    -629.6623732248300485    -4.40e-06  2.27e-05  4.17e-04  1.21e-04     4.6
   10    -629.6623729914816749     2.33e-07  1.14e-05  1.95e-04  1.05e-04     4.4
   11    -629.6623736516497729    -6.60e-07  4.72e-06  8.93e-05  2.24e-05     4.1
   12    -629.6623736341413178     1.75e-08  2.84e-06  5.68e-05  3.36e-05     3.7
   13    -629.6623736719171802    -3.78e-08  8.23e-07  1.82e-05  2.74e-06     3.4
   14    -629.6623736553193567     1.66e-08  5.02e-07  1.17e-05  4.56e-06     2.9
   15    -629.6623736691639124    -1.38e-08  9.16e-08  1.56e-06  2.95e-07     2.6
                  *** Gradient check signals convergence ***

               *****************************************************
               *                     SUCCESS                       *
               *           SCF CONVERGED AFTER  15 CYCLES          *
               *****************************************************

Recomputing exchange energy using gridx3       ... done (   11.800 sec)
Old exchange energy                            :    -16.391701511 Eh
New exchange energy                            :    -16.391735370 Eh
Exchange energy change after final integration :     -0.000033859 Eh
Total energy after final integration           :   -629.662407530 Eh
             **** ENERGY FILE WAS UPDATED (/kaggle/working/Tyr-2/Tyr_InterFrag.en.tmp) ****

----------------
TOTAL SCF ENERGY
----------------

Total Energy       :       -629.66240752989529 Eh          -17133.98518 eV

Components:
Nuclear Repulsion  :        783.38663407691149 Eh           21317.03405 eV
Electronic Energy  :      -1413.04900774774728 Eh          -38451.01831 eV
One Electron Energy:      -2412.24892641496399 Eh          -65640.63039 eV
Two Electron Energy:        999.19991866721671 Eh           27189.61208 eV

Virial components:
Potential Energy   :      -1255.45366961110244 Eh          -34162.63114 eV
Kinetic Energy     :        625.79126208120715 Eh           17028.64596 eV
Virial Ratio       :          2.00618600112091

DFT components:
N(Alpha)           :       47.999900971005 electrons
N(Beta)            :       47.999900971005 electrons
N(Total)           :       95.999801942010 electrons
E(X)               :      -65.136171226534 Eh       
E(C)               :       -3.874550686416 Eh       
E(XC)              :      -69.010721912950 Eh       

---------------
SCF CONVERGENCE
---------------

  Last Energy change         ...    1.3845e-08  Tolerance :   1.0000e-08
  Last MAX-Density change    ...    1.5621e-06  Tolerance :   1.0000e-07
  Last RMS-Density change    ...    9.1629e-08  Tolerance :   5.0000e-09
  Last DIIS Error            ...    2.0579e-03  Tolerance :   5.0000e-07
  Last Orbital Gradient      ...    2.9522e-07  Tolerance :   1.0000e-05
  Last Orbital Rotation      ...    1.0840e-06  Tolerance :   1.0000e-05


----------------
ORBITAL ENERGIES
----------------

  NO   OCC          E(Eh)            E(eV) 
   0   2.0000     -19.191287      -522.2215 
   1   2.0000     -19.171784      -521.6908 
   2   2.0000     -19.131131      -520.5846 
   3   2.0000     -14.312900      -389.4738 
   4   2.0000     -10.311051      -280.5780 
   5   2.0000     -10.243324      -278.7350 
   6   2.0000     -10.221055      -278.1290 
   7   2.0000     -10.188403      -277.2405 
   8   2.0000     -10.185092      -277.1504 
   9   2.0000     -10.184593      -277.1369 
  10   2.0000     -10.184194      -277.1260 
  11   2.0000     -10.184098      -277.1234 
  12   2.0000     -10.179124      -276.9880 
  13   2.0000      -1.101670       -29.9780 
  14   2.0000      -1.052535       -28.6409 
  15   2.0000      -1.007646       -27.4194 
  16   2.0000      -0.892446       -24.2847 
  17   2.0000      -0.850440       -23.1417 
  18   2.0000      -0.775781       -21.1101 
  19   2.0000      -0.745604       -20.2889 
  20   2.0000      -0.716956       -19.5094 
  21   2.0000      -0.667868       -18.1736 
  22   2.0000      -0.620651       -16.8888 
  23   2.0000      -0.594792       -16.1851 
  24   2.0000      -0.574797       -15.6410 
  25   2.0000      -0.540175       -14.6989 
  26   2.0000      -0.523735       -14.2515 
  27   2.0000      -0.483575       -13.1588 
  28   2.0000      -0.474723       -12.9179 
  29   2.0000      -0.467846       -12.7307 
  30   2.0000      -0.463427       -12.6105 
  31   2.0000      -0.437385       -11.9019 
  32   2.0000      -0.431652       -11.7458 
  33   2.0000      -0.420963       -11.4550 
  34   2.0000      -0.411627       -11.2009 
  35   2.0000      -0.402608       -10.9555 
  36   2.0000      -0.401070       -10.9137 
  37   2.0000      -0.385596       -10.4926 
  38   2.0000      -0.376054       -10.2330 
  39   2.0000      -0.357710        -9.7338 
  40   2.0000      -0.355667        -9.6782 
  41   2.0000      -0.334741        -9.1088 
  42   2.0000      -0.326114        -8.8740 
  43   2.0000      -0.310316        -8.4441 
  44   2.0000      -0.271565        -7.3897 
  45   2.0000      -0.250440        -6.8148 
  46   2.0000      -0.245753        -6.6873 
  47   2.0000      -0.212929        -5.7941 
  48   0.0000      -0.004309        -0.1172 
  49   0.0000       0.010151         0.2762 
  50   0.0000       0.014959         0.4070 
  51   0.0000       0.070905         1.9294 
  52   0.0000       0.081106         2.2070 
  53   0.0000       0.085354         2.3226 
  54   0.0000       0.099528         2.7083 
  55   0.0000       0.123261         3.3541 
  56   0.0000       0.141460         3.8493 
  57   0.0000       0.151942         4.1346 
  58   0.0000       0.156196         4.2503 
  59   0.0000       0.172003         4.6804 
  60   0.0000       0.187514         5.1025 
  61   0.0000       0.193279         5.2594 
  62   0.0000       0.198198         5.3932 
  63   0.0000       0.223870         6.0918 
  64   0.0000       0.239355         6.5132 
  65   0.0000       0.243371         6.6225 
  66   0.0000       0.258389         7.0311 
  67   0.0000       0.271234         7.3807 
  68   0.0000       0.316933         8.6242 
  69   0.0000       0.323851         8.8124 
  70   0.0000       0.342600         9.3226 
  71   0.0000       0.345635         9.4052 
  72   0.0000       0.365313         9.9407 
  73   0.0000       0.377539        10.2734 
  74   0.0000       0.489077        13.3085 
  75   0.0000       0.503756        13.7079 
  76   0.0000       0.505009        13.7420 
  77   0.0000       0.532843        14.4994 
  78   0.0000       0.535950        14.5839 
  79   0.0000       0.546675        14.8758 
  80   0.0000       0.549898        14.9635 
  81   0.0000       0.575421        15.6580 
  82   0.0000       0.581306        15.8181 
  83   0.0000       0.595621        16.2077 
  84   0.0000       0.604023        16.4363 
  85   0.0000       0.611457        16.6386 
  86   0.0000       0.614162        16.7122 
  87   0.0000       0.639086        17.3904 
  88   0.0000       0.644533        17.5386 
  89   0.0000       0.648187        17.6381 
  90   0.0000       0.662007        18.0141 
  91   0.0000       0.667077        18.1521 
  92   0.0000       0.684054        18.6141 
  93   0.0000       0.709075        19.2949 
  94   0.0000       0.724517        19.7151 
  95   0.0000       0.744421        20.2567 
  96   0.0000       0.751235        20.4421 
  97   0.0000       0.759778        20.6746 
  98   0.0000       0.781400        21.2630 
  99   0.0000       0.795738        21.6531 
 100   0.0000       0.801354        21.8060 
 101   0.0000       0.812256        22.1026 
 102   0.0000       0.820541        22.3281 
 103   0.0000       0.835388        22.7321 
 104   0.0000       0.853194        23.2166 
 105   0.0000       0.858570        23.3629 
 106   0.0000       0.872090        23.7308 
 107   0.0000       0.879328        23.9277 
 108   0.0000       0.886707        24.1285 
 109   0.0000       0.905274        24.6338 
 110   0.0000       0.911133        24.7932 
 111   0.0000       0.940456        25.5911 
 112   0.0000       0.946519        25.7561 
 113   0.0000       0.959103        26.0985 
 114   0.0000       0.968437        26.3525 
 115   0.0000       0.972241        26.4560 
 116   0.0000       0.997092        27.1322 
 117   0.0000       1.002408        27.2769 
 118   0.0000       1.015218        27.6255 
 119   0.0000       1.028243        27.9799 
 120   0.0000       1.064493        28.9663 
 121   0.0000       1.080879        29.4122 
 122   0.0000       1.090195        29.6657 
 123   0.0000       1.112132        30.2627 
 124   0.0000       1.121332        30.5130 
 125   0.0000       1.160750        31.5856 
 126   0.0000       1.186926        32.2979 
 127   0.0000       1.198529        32.6136 
 128   0.0000       1.217083        33.1185 
 129   0.0000       1.246661        33.9234 
 130   0.0000       1.267565        34.4922 
 131   0.0000       1.321932        35.9716 
 132   0.0000       1.340568        36.4787 
 133   0.0000       1.366818        37.1930 
 134   0.0000       1.392844        37.9012 
 135   0.0000       1.399809        38.0907 
 136   0.0000       1.400685        38.1146 
 137   0.0000       1.405876        38.2558 
 138   0.0000       1.418999        38.6129 
 139   0.0000       1.457293        39.6550 
 140   0.0000       1.470699        40.0198 
 141   0.0000       1.486011        40.4364 
 142   0.0000       1.519280        41.3417 
 143   0.0000       1.548552        42.1382 
 144   0.0000       1.592363        43.3304 
 145   0.0000       1.595867        43.4258 
 146   0.0000       1.669092        45.4183 
 147   0.0000       1.708546        46.4919 
 148   0.0000       1.734380        47.1949 
 149   0.0000       1.749577        47.6084 
 150   0.0000       1.761757        47.9398 
 151   0.0000       1.774591        48.2891 
 152   0.0000       1.781423        48.4750 
 153   0.0000       1.792700        48.7819 
 154   0.0000       1.812743        49.3273 
 155   0.0000       1.835398        49.9437 
 156   0.0000       1.862628        50.6847 
 157   0.0000       1.871860        50.9359 
 158   0.0000       1.885142        51.2973 
 159   0.0000       1.903026        51.7840 
 160   0.0000       1.904947        51.8362 
 161   0.0000       1.923758        52.3481 
 162   0.0000       1.930611        52.5346 
 163   0.0000       1.937284        52.7162 
 164   0.0000       1.954368        53.1811 
 165   0.0000       1.969497        53.5927 
 166   0.0000       1.983419        53.9716 
 167   0.0000       1.995237        54.2932 
 168   0.0000       2.004175        54.5364 
 169   0.0000       2.038829        55.4794 
 170   0.0000       2.049864        55.7796 
 171   0.0000       2.073099        56.4119 
 172   0.0000       2.103353        57.2351 
 173   0.0000       2.135642        58.1138 
 174   0.0000       2.162407        58.8421 
 175   0.0000       2.177801        59.2610 
 176   0.0000       2.210374        60.1473 
 177   0.0000       2.252481        61.2931 
 178   0.0000       2.263795        61.6010 
 179   0.0000       2.275788        61.9273 
 180   0.0000       2.281721        62.0888 
 181   0.0000       2.294273        62.4303 
 182   0.0000       2.305932        62.7476 
 183   0.0000       2.317181        63.0537 
 184   0.0000       2.338714        63.6396 
 185   0.0000       2.353740        64.0485 
 186   0.0000       2.368879        64.4605 
 187   0.0000       2.376481        64.6673 
 188   0.0000       2.406825        65.4930 
 189   0.0000       2.411274        65.6141 
 190   0.0000       2.417671        65.7882 
 191   0.0000       2.451028        66.6959 
 192   0.0000       2.454868        66.8004 
 193   0.0000       2.482822        67.5610 
 194   0.0000       2.490613        67.7730 
 195   0.0000       2.499645        68.0188 
 196   0.0000       2.500973        68.0549 
 197   0.0000       2.521937        68.6254 
 198   0.0000       2.558368        69.6167 
 199   0.0000       2.582281        70.2674 
 200   0.0000       2.584571        70.3298 
 201   0.0000       2.609308        71.0029 
 202   0.0000       2.611186        71.0540 
 203   0.0000       2.628062        71.5132 
 204   0.0000       2.659112        72.3581 
 205   0.0000       2.669775        72.6483 
 206   0.0000       2.704988        73.6065 
 207   0.0000       2.712841        73.8202 
 208   0.0000       2.746349        74.7319 
 209   0.0000       2.748808        74.7989 
 210   0.0000       2.777275        75.5735 
 211   0.0000       2.798213        76.1432 
 212   0.0000       2.807404        76.3933 
 213   0.0000       2.843146        77.3659 
 214   0.0000       2.855833        77.7112 
 215   0.0000       2.887836        78.5820 
 216   0.0000       2.910608        79.2017 
 217   0.0000       2.925666        79.6114 
 218   0.0000       2.937974        79.9464 
 219   0.0000       2.973296        80.9075 
 220   0.0000       3.068642        83.5020 
 221   0.0000       3.077008        83.7296 
 222   0.0000       3.102842        84.4326 
 223   0.0000       3.166687        86.1699 
 224   0.0000       3.200417        87.0878 
 225   0.0000       3.248905        88.4072 
 226   0.0000       3.294973        89.6608 
 227   0.0000       3.329009        90.5870 
 228   0.0000       3.340433        90.8978 
 229   0.0000       3.367360        91.6305 
 230   0.0000       3.373595        91.8002 
 231   0.0000       3.448576        93.8405 
 232   0.0000       3.486273        94.8663 
 233   0.0000       3.510095        95.5145 
 234   0.0000       3.528750        96.0222 
 235   0.0000       3.571402        97.1828 
 236   0.0000       3.855735       104.9199 

                    ********************************
                    * MULLIKEN POPULATION ANALYSIS *
                    ********************************

-----------------------
MULLIKEN ATOMIC CHARGES
-----------------------
   0 O :   -0.461257
   1 O :   -0.537579
   2 O :   -0.450399
   3 N :   -0.557510
   4 C :   -0.258286
   5 C :   -0.010372
   6 C :    0.111839
   7 C :   -0.127965
   8 C :   -0.119436
   9 C :    0.555033
  10 C :   -0.143006
  11 C :   -0.102662
  12 C :    0.313489
  13 H :    0.108860
  14 H :    0.097353
  15 H :    0.120311
  16 H :    0.093999
  17 H :    0.078973
  18 H :    0.232452
  19 H :    0.246530
  20 H :    0.075037
  21 H :    0.095250
  22 H :    0.323087
  23 H :    0.316260
Sum of atomic charges:    0.0000000

--------------------------------
MULLIKEN REDUCED ORBITAL CHARGES
--------------------------------
  0 O s       :     3.825232  s :     3.825232
      pz      :     1.593046  p :     4.612397
      px      :     1.695154
      py      :     1.324198
      dz2     :     0.007156  d :     0.023628
      dxz     :     0.005605
      dyz     :     0.003101
      dx2y2   :     0.006182
      dxy     :     0.001584

  1 O s       :     3.847515  s :     3.847515
      pz      :     1.745851  p :     4.665813
      px      :     1.483394
      py      :     1.436568
      dz2     :     0.002757  d :     0.024250
      dxz     :     0.005269
      dyz     :     0.004994
      dx2y2   :     0.008254
      dxy     :     0.002977

  2 O s       :     3.860203  s :     3.860203
      pz      :     1.477765  p :     4.562554
      px      :     1.436594
      py      :     1.648196
      dz2     :     0.006912  d :     0.027642
      dxz     :     0.005277
      dyz     :     0.006088
      dx2y2   :     0.004597
      dxy     :     0.004768

  3 N s       :     3.608822  s :     3.608822
      pz      :     1.460031  p :     3.918077
      px      :     1.312273
      py      :     1.145773
      dz2     :     0.009604  d :     0.030611
      dxz     :     0.003437
      dyz     :     0.004106
      dx2y2   :     0.009725
      dxy     :     0.003739

  4 C s       :     3.237056  s :     3.237056
      pz      :     0.993745  p :     2.983318
      px      :     0.958915
      py      :     1.030658
      dz2     :     0.008710  d :     0.037913
      dxz     :     0.009201
      dyz     :     0.003668
      dx2y2   :     0.011079
      dxy     :     0.005255

  5 C s       :     3.184264  s :     3.184264
      pz      :     1.001445  p :     2.769003
      px      :     0.843209
      py      :     0.924349
      dz2     :     0.011649  d :     0.057105
      dxz     :     0.014189
      dyz     :     0.005197
      dx2y2   :     0.017180
      dxy     :     0.008891

  6 C s       :     3.127623  s :     3.127623
      pz      :     0.939550  p :     2.720338
      px      :     0.881514
      py      :     0.899274
      dz2     :     0.006196  d :     0.040200
      dxz     :     0.007329
      dyz     :     0.006113
      dx2y2   :     0.010447
      dxy     :     0.010114

  7 C s       :     3.186912  s :     3.186912
      pz      :     0.993570  p :     2.905630
      px      :     0.955334
      py      :     0.956726
      dz2     :     0.003434  d :     0.035424
      dxz     :     0.007178
      dyz     :     0.006375
      dx2y2   :     0.008940
      dxy     :     0.009496

  8 C s       :     3.186790  s :     3.186790
      pz      :     0.965268  p :     2.897179
      px      :     0.953172
      py      :     0.978740
      dz2     :     0.005113  d :     0.035467
      dxz     :     0.007130
      dyz     :     0.005288
      dx2y2   :     0.009266
      dxy     :     0.008670

  9 C s       :     2.979196  s :     2.979196
      pz      :     0.712431  p :     2.343142
      px      :     0.732842
      py      :     0.897870
      dz2     :     0.032462  d :     0.122629
      dxz     :     0.022932
      dyz     :     0.026880
      dx2y2   :     0.023173
      dxy     :     0.017182

 10 C s       :     3.150611  s :     3.150611
      pz      :     1.007274  p :     2.959221
      px      :     0.987336
      py      :     0.964610
      dz2     :     0.004754  d :     0.033174
      dxz     :     0.006951
      dyz     :     0.004739
      dx2y2   :     0.007884
      dxy     :     0.008845

 11 C s       :     3.167056  s :     3.167056
      pz      :     0.999587  p :     2.902798
      px      :     0.957270
      py      :     0.945942
      dz2     :     0.003372  d :     0.032808
      dxz     :     0.006939
      dyz     :     0.005493
      dx2y2   :     0.008628
      dxy     :     0.008376

 12 C s       :     3.077470  s :     3.077470
      pz      :     0.926749  p :     2.539571
      px      :     0.708520
      py      :     0.904302
      dz2     :     0.009549  d :     0.069470
      dxz     :     0.014524
      dyz     :     0.008877
      dx2y2   :     0.019543
      dxy     :     0.016977

 13 H s       :     0.879791  s :     0.879791
      pz      :     0.005942  p :     0.011349
      px      :     0.002656
      py      :     0.002751

 14 H s       :     0.891170  s :     0.891170
      pz      :     0.002393  p :     0.011477
      px      :     0.002176
      py      :     0.006908

 15 H s       :     0.868848  s :     0.868848
      pz      :     0.006249  p :     0.010841
      px      :     0.002213
      py      :     0.002379

 16 H s       :     0.893654  s :     0.893654
      pz      :     0.004525  p :     0.012347
      px      :     0.004289
      py      :     0.003533

 17 H s       :     0.908757  s :     0.908757
      pz      :     0.003339  p :     0.012271
      px      :     0.002471
      py      :     0.006461

 18 H s       :     0.743754  s :     0.743754
      pz      :     0.006370  p :     0.023794
      px      :     0.005453
      py      :     0.011971

 19 H s       :     0.729697  s :     0.729697
      pz      :     0.010958  p :     0.023774
      px      :     0.006579
      py      :     0.006237

 20 H s       :     0.912531  s :     0.912531
      pz      :     0.003581  p :     0.012432
      px      :     0.002374
      py      :     0.006477

 21 H s       :     0.892358  s :     0.892358
      pz      :     0.004604  p :     0.012392
      px      :     0.004372
      py      :     0.003416

 22 H s       :     0.639401  s :     0.639401
      pz      :     0.007415  p :     0.037512
      px      :     0.008209
      py      :     0.021889

 23 H s       :     0.645281  s :     0.645281
      pz      :     0.012034  p :     0.038459
      px      :     0.007750
      py      :     0.018675


------------------------
MULLIKEN OVERLAP CHARGES
------------------------
B(  0-O ,  2-O ) :  -0.1632 B(  0-O ,  5-C ) :  -0.1561 B(  0-O ,  9-C ) :   0.5916 
B(  0-O , 22-H ) :   0.5463 B(  1-O , 10-C ) :  -0.1257 B(  1-O , 11-C ) :  -0.0970 
B(  1-O , 12-C ) :   0.5907 B(  1-O , 23-H ) :   0.6033 B(  2-O ,  5-C ) :  -0.1619 
B(  2-O ,  9-C ) :   1.2144 B(  3-N ,  4-C ) :  -0.1131 B(  3-N ,  5-C ) :   0.6583 
B(  3-N ,  9-C ) :  -0.0761 B(  3-N , 15-H ) :  -0.0763 B(  3-N , 18-H ) :   0.6831 
B(  3-N , 19-H ) :   0.6739 B(  4-C ,  5-C ) :   0.6728 B(  4-C ,  6-C ) :   0.6072 
B(  4-C ,  7-C ) :  -0.1030 B(  4-C ,  8-C ) :  -0.1160 B(  4-C ,  9-C ) :  -0.0579 
B(  4-C , 13-H ) :   0.7177 B(  4-C , 14-H ) :   0.7264 B(  4-C , 15-H ) :  -0.0937 
B(  5-C ,  6-C ) :  -0.0738 B(  5-C ,  9-C ) :   0.6022 B(  5-C , 13-H ) :  -0.0757 
B(  5-C , 14-H ) :  -0.0821 B(  5-C , 15-H ) :   0.7290 B(  5-C , 18-H ) :  -0.0914 
B(  5-C , 19-H ) :  -0.0843 B(  6-C ,  7-C ) :   1.0931 B(  6-C ,  8-C ) :   1.0843 
B(  6-C , 10-C ) :  -0.0584 B(  6-C , 11-C ) :  -0.0519 B(  6-C , 12-C ) :  -0.0694 
B(  6-C , 16-H ) :  -0.0827 B(  6-C , 17-H ) :  -0.0929 B(  7-C ,  8-C ) :  -0.0599 
B(  7-C , 10-C ) :   0.9118 B(  7-C , 11-C ) :  -0.0881 B(  7-C , 16-H ) :   0.7192 
B(  7-C , 20-H ) :  -0.0581 B(  8-C , 10-C ) :  -0.0926 B(  8-C , 11-C ) :   1.0444 
B(  8-C , 17-H ) :   0.7291 B(  8-C , 21-H ) :  -0.0734 B(  9-C , 15-H ) :  -0.0650 
B( 10-C , 11-C ) :  -0.1111 B( 10-C , 12-C ) :   1.0061 B( 10-C , 16-H ) :  -0.0701 
B( 10-C , 20-H ) :   0.7088 B( 11-C , 12-C ) :   1.0836 B( 11-C , 17-H ) :  -0.0809 
B( 11-C , 21-H ) :   0.7111 B( 12-C , 20-H ) :  -0.0926 B( 12-C , 21-H ) :  -0.0731 
B( 12-C , 23-H ) :  -0.0813 B( 13-H , 14-H ) :  -0.0659 B( 18-H , 19-H ) :  -0.0646 



                     *******************************
                     * LOEWDIN POPULATION ANALYSIS *
                     *******************************

----------------------
LOEWDIN ATOMIC CHARGES
----------------------
   0 O :   -0.140630
   1 O :   -0.183896
   2 O :   -0.248531
   3 N :   -0.253027
   4 C :   -0.123300
   5 C :   -0.037853
   6 C :   -0.039949
   7 C :   -0.067338
   8 C :   -0.063618
   9 C :    0.153312
  10 C :   -0.124435
  11 C :   -0.093372
  12 C :    0.079621
  13 H :    0.075345
  14 H :    0.071095
  15 H :    0.078911
  16 H :    0.076344
  17 H :    0.071451
  18 H :    0.123332
  19 H :    0.129449
  20 H :    0.069152
  21 H :    0.081332
  22 H :    0.187622
  23 H :    0.178982

-------------------------------
LOEWDIN REDUCED ORBITAL CHARGES
-------------------------------
  0 O s       :     3.475397  s :     3.475397
      pz      :     1.601010  p :     4.615451
      px      :     1.678822
      py      :     1.335619
      dz2     :     0.012899  d :     0.049782
      dxz     :     0.011428
      dyz     :     0.008304
      dx2y2   :     0.013040
      dxy     :     0.004110

  1 O s       :     3.473490  s :     3.473490
      pz      :     1.728195  p :     4.662414
      px      :     1.491191
      py      :     1.443028
      dz2     :     0.004368  d :     0.047992
      dxz     :     0.009390
      dyz     :     0.008770
      dx2y2   :     0.017531
      dxy     :     0.007932

  2 O s       :     3.562338  s :     3.562338
      pz      :     1.514080  p :     4.631220
      px      :     1.450610
      py      :     1.666530
      dz2     :     0.010871  d :     0.054972
      dxz     :     0.012271
      dyz     :     0.014420
      dx2y2   :     0.007583
      dxy     :     0.009828

  3 N s       :     3.213584  s :     3.213584
      pz      :     1.457146  p :     3.981017
      px      :     1.350138
      py      :     1.173733
      dz2     :     0.015206  d :     0.058426
      dxz     :     0.007082
      dyz     :     0.006717
      dx2y2   :     0.020391
      dxy     :     0.009030

  4 C s       :     2.901413  s :     2.901413
      pz      :     1.053110  p :     3.138941
      px      :     1.020345
      py      :     1.065486
      dz2     :     0.017945  d :     0.082945
      dxz     :     0.021748
      dyz     :     0.007234
      dx2y2   :     0.024342
      dxy     :     0.011677

  5 C s       :     2.883453  s :     2.883453
      pz      :     1.059534  p :     3.028022
      px      :     0.960279
      py      :     1.008208
      dz2     :     0.024556  d :     0.126378
      dxz     :     0.032115
      dyz     :     0.010780
      dx2y2   :     0.039772
      dxy     :     0.019154

  6 C s       :     2.871292  s :     2.871292
      pz      :     1.014897  p :     3.068346
      px      :     1.013307
      py      :     1.040141
      dz2     :     0.013920  d :     0.100312
      dxz     :     0.017132
      dyz     :     0.016244
      dx2y2   :     0.027089
      dxy     :     0.025926

  7 C s       :     2.896407  s :     2.896407
      pz      :     1.008615  p :     3.085762
      px      :     1.042105
      py      :     1.035041
      dz2     :     0.007822  d :     0.085169
      dxz     :     0.015859
      dyz     :     0.013869
      dx2y2   :     0.022913
      dxy     :     0.024705

  8 C s       :     2.895793  s :     2.895793
      pz      :     1.003491  p :     3.082739
      px      :     1.044797
      py      :     1.034450
      dz2     :     0.011086  d :     0.085086
      dxz     :     0.018162
      dyz     :     0.010971
      dx2y2   :     0.023158
      dxy     :     0.021710

  9 C s       :     2.852043  s :     2.852043
      pz      :     0.877044  p :     2.707833
      px      :     0.817750
      py      :     1.013039
      dz2     :     0.074682  d :     0.286812
      dxz     :     0.058083
      dyz     :     0.061909
      dx2y2   :     0.053546
      dxy     :     0.038592

 10 C s       :     2.896341  s :     2.896341
      pz      :     1.044286  p :     3.146302
      px      :     1.058737
      py      :     1.043279
      dz2     :     0.010330  d :     0.081792
      dxz     :     0.018136
      dyz     :     0.010223
      dx2y2   :     0.020481
      dxy     :     0.022621

 11 C s       :     2.895502  s :     2.895502
      pz      :     1.030686  p :     3.117653
      px      :     1.052192
      py      :     1.034775
      dz2     :     0.007469  d :     0.080216
      dxz     :     0.015155
      dyz     :     0.012793
      dx2y2   :     0.022689
      dxy     :     0.022110

 12 C s       :     2.854457  s :     2.854457
      pz      :     0.992161  p :     2.901444
      px      :     0.884907
      py      :     1.024376
      dz2     :     0.021314  d :     0.164478
      dxz     :     0.033857
      dyz     :     0.020777
      dx2y2   :     0.046678
      dxy     :     0.041853

 13 H s       :     0.885427  s :     0.885427
      pz      :     0.022013  p :     0.039228
      px      :     0.008567
      py      :     0.008648

 14 H s       :     0.890119  s :     0.890119
      pz      :     0.007043  p :     0.038785
      px      :     0.006557
      py      :     0.025185

 15 H s       :     0.881430  s :     0.881430
      pz      :     0.023263  p :     0.039659
      px      :     0.007448
      py      :     0.008948

 16 H s       :     0.883222  s :     0.883222
      pz      :     0.014742  p :     0.040434
      px      :     0.014117
      py      :     0.011575

 17 H s       :     0.888747  s :     0.888747
      pz      :     0.010353  p :     0.039802
      px      :     0.007564
      py      :     0.021885

 18 H s       :     0.799435  s :     0.799435
      pz      :     0.018650  p :     0.077233
      px      :     0.016120
      py      :     0.042463

 19 H s       :     0.792073  s :     0.792073
      pz      :     0.040890  p :     0.078478
      px      :     0.020236
      py      :     0.017353

 20 H s       :     0.890366  s :     0.890366
      pz      :     0.011136  p :     0.040482
      px      :     0.007628
      py      :     0.021718

 21 H s       :     0.877649  s :     0.877649
      pz      :     0.015129  p :     0.041020
      px      :     0.014494
      py      :     0.011397

 22 H s       :     0.698999  s :     0.698999
      pz      :     0.021502  p :     0.113378
      px      :     0.023828
      py      :     0.068048

 23 H s       :     0.705497  s :     0.705497
      pz      :     0.036583  p :     0.115521
      px      :     0.021640
      py      :     0.057297


---------------------------------
LOEWDIN BOND ORDERS (THRESH 0.050000)
---------------------------------
B(  0-O ,  2-O ) :   0.2047 B(  0-O ,  5-C ) :   0.0633 B(  0-O ,  9-C ) :   1.4104 
B(  0-O , 22-H ) :   0.9835 B(  1-O , 10-C ) :   0.1030 B(  1-O , 11-C ) :   0.0925 
B(  1-O , 12-C ) :   1.2872 B(  1-O , 23-H ) :   1.0131 B(  2-O ,  5-C ) :   0.0846 
B(  2-O ,  9-C ) :   2.1961 B(  3-N ,  4-C ) :   0.0705 B(  3-N ,  5-C ) :   1.1548 
B(  3-N ,  9-C ) :   0.0554 B(  3-N , 18-H ) :   0.9860 B(  3-N , 19-H ) :   0.9810 
B(  4-C ,  5-C ) :   0.9895 B(  4-C ,  6-C ) :   1.0392 B(  4-C ,  7-C ) :   0.0614 
B(  4-C ,  8-C ) :   0.0601 B(  4-C ,  9-C ) :   0.0548 B(  4-C , 13-H ) :   0.9255 
B(  4-C , 14-H ) :   0.9226 B(  5-C ,  9-C ) :   0.9818 B(  5-C , 15-H ) :   0.9053 
B(  6-C ,  7-C ) :   1.4335 B(  6-C ,  8-C ) :   1.4210 B(  6-C , 10-C ) :   0.0744 
B(  6-C , 11-C ) :   0.0743 B(  6-C , 12-C ) :   0.0925 B(  7-C ,  8-C ) :   0.0716 
B(  7-C , 10-C ) :   1.4803 B(  7-C , 11-C ) :   0.1089 B(  7-C , 12-C ) :   0.0785 
B(  7-C , 16-H ) :   0.9194 B(  8-C , 10-C ) :   0.1062 B(  8-C , 11-C ) :   1.5017 
B(  8-C , 12-C ) :   0.0775 B(  8-C , 17-H ) :   0.9219 B(  9-C , 22-H ) :   0.0576 
B( 10-C , 11-C ) :   0.0734 B( 10-C , 12-C ) :   1.4133 B( 10-C , 20-H ) :   0.9197 
B( 11-C , 12-C ) :   1.3949 B( 11-C , 21-H ) :   0.9201 

------------------------------------------
LOEWDIN REDUCED ORBITAL POPULATIONS PER MO
-------------------------------------------
THRESHOLD FOR PRINTING IS 0.1%%
                      0         1         2         3         4         5   
                 -19.19129 -19.17178 -19.13113 -14.31290 -10.31105 -10.24332
                   2.00000   2.00000   2.00000   2.00000   2.00000   2.00000
                  --------  --------  --------  --------  --------  --------
 0 O  s              99.9       0.0       0.0       0.0       0.0       0.0
 0 O  pz              0.0       0.0       0.0       0.0       0.1       0.0
 1 O  s               0.0      99.9       0.0       0.0       0.0       0.0
 1 O  px              0.0       0.0       0.0       0.0       0.0       0.1
 2 O  s               0.0       0.0      99.8       0.0       0.1       0.0
 2 O  pz              0.0       0.0       0.0       0.0       0.2       0.0
 2 O  py              0.0       0.0       0.0       0.0       0.1       0.0
 3 N  s               0.0       0.0       0.0      99.7       0.0       0.0
 5 C  py              0.0       0.0       0.0       0.0       0.1       0.0
 9 C  s               0.0       0.0       0.0       0.0      98.9       0.0
11 C  py              0.0       0.0       0.0       0.0       0.0       0.2
12 C  s               0.0       0.0       0.0       0.0       0.0      99.3

                      6         7         8         9        10        11   
                 -10.22106 -10.18840 -10.18509 -10.18459 -10.18419 -10.18410
                   2.00000   2.00000   2.00000   2.00000   2.00000   2.00000
                  --------  --------  --------  --------  --------  --------
 3 N  px              0.1       0.0       0.0       0.0       0.0       0.0
 4 C  s               0.0      99.4       0.0       0.0       0.0       0.0
 5 C  s              99.4       0.0       0.0       0.0       0.0       0.0
 6 C  s               0.0       0.1       9.7      31.5      43.1      14.9
 6 C  px              0.0       0.1       0.0       0.0       0.0       0.0
 6 C  py              0.0       0.0       0.1       0.1       0.0       0.0
 7 C  s               0.0       0.0      83.9       5.6       0.2       9.6
 7 C  py              0.0       0.0       0.0       0.1       0.1       0.0
 8 C  s               0.0       0.0       0.9      60.0      33.4       4.9
 9 C  py              0.2       0.0       0.0       0.0       0.0       0.0
10 C  s               0.0       0.0       4.9       2.0      22.5      70.0
10 C  px              0.0       0.0       0.1       0.0       0.0       0.0
11 C  s               0.0       0.0       0.0       0.1       0.1       0.0
11 C  px              0.0       0.0       0.0       0.1       0.0       0.0

                     12        13        14        15        16        17   
                 -10.17912  -1.10167  -1.05254  -1.00765  -0.89245  -0.85044
                   2.00000   2.00000   2.00000   2.00000   2.00000   2.00000
                  --------  --------  --------  --------  --------  --------
 0 O  s               0.0      41.3       0.0      18.8       0.0       0.0
 0 O  pz              0.0       2.0       0.0       0.2       0.0       0.0
 0 O  px              0.0       0.9       0.0       0.1       0.0       0.0
 0 O  py              0.0       0.1       0.0       0.2       0.2       0.0
 1 O  s               0.0       0.0      58.1       0.0       0.0       1.3
 1 O  pz              0.0       0.0       0.8       0.0       0.0       0.0
 1 O  px              0.0       0.0       1.6       0.0       0.0       0.5
 1 O  py              0.0       0.0       0.2       0.0       0.0       0.3
 2 O  s               0.0      13.8       0.0      40.9       1.3       0.0
 2 O  pz              0.0       1.4       0.0       1.3       0.0       0.0
 2 O  px              0.0       0.8       0.0       0.7       0.0       0.0
 2 O  py              0.0       0.5       0.0       1.3       0.0       0.0
 3 N  s               0.0       0.1       0.0       0.2      37.2       1.8
 3 N  pz              0.0       0.0       0.0       0.0       0.4       0.0
 3 N  px              0.0       0.0       0.0       0.0       2.2       0.0
 4 C  s               0.0       0.1       0.0       0.0       3.8       2.5
 4 C  pz              0.0       0.0       0.0       0.0       0.7       0.0
 4 C  px              0.0       0.0       0.0       0.0       0.8       1.7
 4 C  py              0.0       0.0       0.0       0.0       0.1       0.2
 5 C  s               0.0       1.0       0.0       0.3      16.9       0.0
 5 C  pz              0.0       0.0       0.0       0.1       0.7       0.0
 5 C  px              0.0       0.0       0.0       0.2       3.3       1.1
 5 C  py              0.0       1.6       0.0       0.2       0.9       0.0
 5 C  dx2y2           0.0       0.0       0.0       0.0       0.1       0.0
 5 C  dxy             0.0       0.0       0.0       0.0       0.1       0.0
 6 C  s               0.0       0.0       0.0       0.0       1.0      15.1
 6 C  px              0.0       0.0       0.0       0.0       0.3       1.1
 6 C  py              0.0       0.0       0.0       0.0       0.0       0.2
 7 C  s               0.0       0.0       0.1       0.0       0.3      12.6
 7 C  pz              0.0       0.0       0.0       0.0       0.0       0.9
 7 C  px              0.0       0.0       0.1       0.0       0.0       0.5
 7 C  py              0.0       0.0       0.0       0.0       0.1       0.9
 8 C  s               0.2       0.0       0.1       0.0       0.3      12.3
 8 C  pz              0.0       0.0       0.0       0.0       0.0       0.5
 8 C  px              0.2       0.0       0.0       0.0       0.0       0.0
 8 C  py              0.0       0.0       0.0       0.0       0.0       1.7
 9 C  s               0.0      19.5       0.0       4.0       0.4       0.0
 9 C  pz              0.0       0.8       0.0      15.9       0.1       0.0
 9 C  px              0.0       0.3       0.0       8.0       0.1       0.0
 9 C  py              0.0       4.0       0.0       0.9       4.7       0.0
 9 C  dz2             0.0       0.2       0.0       0.0       0.0       0.0
 9 C  dxz             0.0       1.0       0.0       0.1       0.0       0.0
 9 C  dyz             0.0       0.0       0.0       1.3       0.0       0.0
 9 C  dxy             0.0       0.0       0.0       0.7       0.0       0.0
10 C  s               0.0       0.0       0.8       0.0       0.1       9.8
10 C  pz              0.0       0.0       0.4       0.0       0.0       0.2
10 C  px              0.0       0.0       0.7       0.0       0.0       0.5
10 C  py              0.0       0.0       0.1       0.0       0.0       1.6
11 C  s              99.2       0.0       0.7       0.0       0.1       9.5
11 C  pz              0.0       0.0       0.1       0.0       0.0       0.8
11 C  px              0.0       0.0       0.3       0.0       0.0       1.3
11 C  py              0.0       0.0       0.8       0.0       0.0       0.3
12 C  s               0.0       0.0      10.2       0.0       0.0       6.4
12 C  pz              0.0       0.0       0.3       0.0       0.0       0.2
12 C  px              0.0       0.0       7.3       0.0       0.0       4.1
[...]
 10 C      6.1430     6.0000    -0.1430     3.8938     3.8938    -0.0000
 11 C      6.1027     6.0000    -0.1027     3.9190     3.9190    -0.0000
 12 C      5.6865     6.0000     0.3135     3.8860     3.8860     0.0000
 13 H      0.8911     1.0000     0.1089     0.9608     0.9608    -0.0000
 14 H      0.9026     1.0000     0.0974     0.9579     0.9579    -0.0000
 15 H      0.8797     1.0000     0.1203     0.9524     0.9524     0.0000
 16 H      0.9060     1.0000     0.0940     0.9634     0.9634    -0.0000
 17 H      0.9210     1.0000     0.0790     0.9601     0.9601     0.0000
 18 H      0.7675     1.0000     0.2325     0.9240     0.9240    -0.0000
 19 H      0.7535     1.0000     0.2465     0.9290     0.9290     0.0000
 20 H      0.9250     1.0000     0.0750     0.9597     0.9597     0.0000
 21 H      0.9047     1.0000     0.0953     0.9601     0.9601     0.0000
 22 H      0.6769     1.0000     0.3231     0.9129     0.9129     0.0000
 23 H      0.6837     1.0000     0.3163     0.9009     0.9009     0.0000

  Mayer bond orders larger than 0.100000
B(  0-O ,  9-C ) :   1.0998 B(  0-O , 22-H ) :   0.8521 B(  1-O , 12-C ) :   0.9664 
B(  1-O , 23-H ) :   0.8763 B(  2-O ,  9-C ) :   1.9014 B(  3-N ,  5-C ) :   1.0244 
B(  3-N , 18-H ) :   0.9112 B(  3-N , 19-H ) :   0.8966 B(  4-C ,  5-C ) :   0.9539 
B(  4-C ,  6-C ) :   0.9809 B(  4-C , 13-H ) :   0.9396 B(  4-C , 14-H ) :   0.9419 
B(  5-C ,  9-C ) :   0.9249 B(  5-C , 15-H ) :   0.9315 B(  6-C ,  7-C ) :   1.4318 
B(  6-C ,  8-C ) :   1.4148 B(  7-C , 10-C ) :   1.4243 B(  7-C , 16-H ) :   0.9336 
B(  8-C , 11-C ) :   1.4499 B(  8-C , 17-H ) :   0.9389 B( 10-C , 12-C ) :   1.3837 
B( 10-C , 20-H ) :   0.9350 B( 11-C , 12-C ) :   1.3950 B( 11-C , 21-H ) :   0.9345 


-------
TIMINGS
-------

Total SCF time: 0 days 0 hours 1 min 16 sec 

Total time                  ....      76.583 sec
Sum of individual times     ....      74.614 sec  ( 97.4%)

SCF preparation             ....       0.400 sec  (  0.5%)
Fock matrix formation       ....      73.427 sec  ( 95.9%)
  Startup                   ....       0.007 sec  (  0.0% of F)
  Split-RI-J                ....       7.583 sec  ( 10.3% of F)
  Chain of spheres X        ....      56.918 sec  ( 77.5% of F)
  XC integration            ....      10.732 sec  ( 14.6% of F)
    XC Preparation          ....       0.000 sec  (  0.0% of XC)
    Basis function eval.    ....       3.764 sec  ( 35.1% of XC)
    Density eval.           ....       3.034 sec  ( 28.3% of XC)
    XC-Functional eval.     ....       0.530 sec  (  4.9% of XC)
    XC-Potential eval.      ....       2.808 sec  ( 26.2% of XC)
Diagonalization             ....       0.000 sec  (  0.0%)
Density matrix formation    ....       0.052 sec  (  0.1%)
Total Energy calculation    ....       0.024 sec  (  0.0%)
Population analysis         ....       0.303 sec  (  0.4%)
Orbital Transformation      ....       0.041 sec  (  0.1%)
Orbital Orthonormalization  ....       0.000 sec  (  0.0%)
DIIS solution               ....       0.194 sec  (  0.3%)
  MO trafo                  ....       0.000 sec  (  0.0 % of DIIS)
  Orb grad                  ....       0.000 sec  (  0.0 % of DIIS)
  Energy W gradient         ....       0.000 sec  (  0.0 % of DIIS)
  DIIS error                ....       0.044 sec  ( 22.8 % of DIIS)
  DIIS work                 ....       0.124 sec  ( 63.9 % of DIIS)
  Form Q                    ....       0.000 sec  (  0.0 % of DIIS)
  Form QpQm                 ....       0.000 sec  (  0.0 % of DIIS)
  Exp/Cayley                ....       0.000 sec  (  0.0 % of DIIS)
  Orb update                ....       0.000 sec  (  0.0 % of DIIS)
  Wake-sleep                ....       0.005 sec  (  2.7 % of DIIS)
SOSCF solution              ....       0.173 sec  (  0.2%)
  MO trafo                  ....       0.061 sec  ( 35.0 % of SOSCF)
  Orb grad                  ....       0.006 sec  (  3.4 % of SOSCF)
  Rot update                ....       0.023 sec  ( 13.0 % of SOSCF)
  Step                      ....       0.076 sec  ( 44.0 % of SOSCF)
Finished LeanSCF after  76.6 sec

Maximum memory used throughout the entire LEANSCF-calculation: 27.6 MB


-------------------------------------------------------------------------------
                          DFT DISPERSION CORRECTION                            
                                                                               
                              DFTD3 V3.1  Rev 1                                
                          USING Becke-Johnson damping                          
-------------------------------------------------------------------------------
The B3LYP functional is recognized
Active option DFTDOPT                   ...         4   

molecular C6(AA) [au] = 5885.983593 


            DFT-D V3
 parameters
 s6 scaling factor         :     1.0000 
 a1 scaling factor         :     0.3981 
 s8 scaling factor         :     1.9889 
 a2 scaling factor         :     4.4211 
 ad hoc parameters k1-k3   :    16.0000     1.3333    -4.0000 

 Edisp/kcal,au: -28.430055437795  -0.045306172385 
 E6   /kcal   : -13.508877563 
 E8   /kcal   : -14.921177875 
 % E8         :  52.483815613 

-------------------------   ----------------
Dispersion correction           -0.045306172
-------------------------   ----------------


-------------------------   --------------------
FINAL SINGLE POINT ENERGY      -629.707713702280
-------------------------   --------------------



           ************************************************************
           *        Program running with 2 parallel MPI-processes     *
           *              working on a common directory               *
           ************************************************************
------------------------------------------------------------------------------
                            ORCA SCF RESPONSE CALCULATION
------------------------------------------------------------------------------

GBWName                                 ... /kaggle/working/Tyr-2/Tyr_InterFrag.gbw
Number of atoms                         ...     24
Number of basis functions               ...    237
Max core memory                         ...   3000 MB

Electric field perturbation             ... YES
Quadrupolar field perturbation          ...  NO
Magnetic field perturbation (no GIAO)   ...  NO
Magnetic field perturbation (with GIAO) ...  NO
Linear momentum (velocity) perturbation ...  NO
Spin-orbit coupling perturbation        ...  NO
Choice of electric origin               ... Center of mass
Position of electric origin             ...    -0.040683    -0.088134    -0.073080
Choice of magnetic origin               ... GIAO
Position of magnetic origin             ...     0.000000     0.000000     0.000000
Nuclear geometric perturbations         ...  NO (  72 perturbations)
Nucleus-orbit perturbations             ...  NO (   0 perturbations)
Spin-dipole/Fermi contact perturbations ...  NO (   0 perturbations)

Total number of real perturbations      ...      3
Total number of imaginary perturbations ...      0
Total number of triplet perturbations   ...      0
Total number of SOC perturbations       ...      0

Using XC Grid                  ... (/kaggle/working/Tyr-2/Tyr_InterFrag.grid_cpscf.tmp) 
Recalculating density on grid  ... (/kaggle/working/Tyr-2/Tyr_InterFrag.grho_cpscf0.tmp) done
Calculating the xc-kernel      ... (/kaggle/working/Tyr-2/Tyr_InterFrag.fxc_cpscf0.tmp) done

                                **********************
                                * REAL PERTURBATIONS *
                                **********************



-------------------
SHARK CP-SCF DRIVER
-------------------

Dimension of the orbital basis          ...    237
Dimension of the CPSCF-problem          ...   9072
Number of operators                     ...      1
Max. number of iterations               ...    128
Convergence Tolerance                   ... 1.0e-04
Number of perturbations                 ...      3
Perturbation type                       ... REAL

----------------------------
POPLE LINEAR EQUATION SOLVER
----------------------------

  ITERATION   0:   ||err||_max =   1.7562e+01 (   3.1 sec   0/  3 done)
  ITERATION   1:   ||err||_max =   1.0612e+00 (   2.8 sec   0/  3 done)
  ITERATION   2:   ||err||_max =   4.0977e-01 (   2.8 sec   0/  3 done)
  ITERATION   3:   ||err||_max =   1.1982e-01 (   2.9 sec   0/  3 done)
  ITERATION   4:   ||err||_max =   4.6162e-02 (   2.8 sec   0/  3 done)
  ITERATION   5:   ||err||_max =   1.5339e-02 (   2.8 sec   0/  3 done)
  ITERATION   6:   ||err||_max =   4.3438e-03 (   2.9 sec   0/  3 done)
  ITERATION   7:   ||err||_max =   1.5173e-03 (   2.9 sec   0/  3 done)
  ITERATION   8:   ||err||_max =   4.6623e-04 (   2.8 sec   0/  3 done)
  ITERATION   9:   ||err||_max =   1.6552e-04 (   2.9 sec   1/  3 done)
  ITERATION  10:   ||err||_max =   5.0358e-05 (   2.6 sec   3/  3 done)

CP-SCF equations solved in  31.3 sec
Response densities calculated in   0.0 sec

Maximum memory used throughout the entire SCFRESP-calculation: 31.0 MB


           ************************************************************
           *        Program running with 2 parallel MPI-processes     *
           *              working on a common directory               *
           ************************************************************

------------------------------------------------------------------------------
                              ORCA PROPERTY CALCULATIONS
------------------------------------------------------------------------------

GBWName                                 ... /kaggle/working/Tyr-2/Tyr_InterFrag.gbw
Number of atoms                         ...     24
Number of basis functions               ...    237
Max core memory                         ...   3000 MB

Electric properties:
Dipole moment                           ... YES
Quadrupole moment                       ...  NO
Static polarizability (Dipole/Dipole)   ... YES
Static polarizability (Dipole/Quad.)    ...  NO
Static polarizability (Quad./Quad.)     ...  NO
Static polarizability (Velocity)        ...  NO
Static hyperpolarizability              ...  NO

Atomic electric properties:
Dipole moment                           ...  NO
Quadrupole moment                       ...  NO
Static polarizability                   ...  NO

Choice of electric origin               ... Center of mass
Position of electric origin             ...    -0.040683    -0.088134    -0.073080

General magnetic properties:
Magnetizability                         ...  NO

EPR properties:
g-Tensor (aka g-matrix)                 ...  NO
Zero-Field splitting spin-orbit         ...  NO
Zero-field splitting spin-spin          ...  NO
Hyperfine couplings                     ...  NO (   0 nuclei)
Quadrupole couplings                    ...  NO (   0 nuclei)
Contact density                         ...  NO (   0 nuclei)

NMR properties:
Chemical shifts                         ...  NO (   0 nuclei)
Spin-rotation constants                 ...  NO (   0 nuclei)
Spin-spin couplings                     ...  NO (   0 nuclei,    0 pairs)

Choice of magnetic origin               ... GIAO
Position of magnetic origin             ...     0.000000     0.000000     0.000000

Properties with geometric perturbations:
SCF Hessian                             ...  NO
IR spectrum                             ...  NO
VCD spectrum                            ...  NO
X-ray spectroscopy properties:
SCF XES/XAS/RIXS spectra                ...  NO

SCF SOC stabilization energy            ...  NO
Diagonal Born-Oppenheimer correction    ...  NO

-------------
DIPOLE MOMENT
-------------

Method             : SCF
Type of density    : Electron Density
Multiplicity       :   1
Irrep              :   0
Energy             :  -629.6624075298952903 Eh
Basis              : AO
                                X                 Y                 Z
Electronic contribution:      2.598718110      -4.379154725      -1.583248126
Nuclear contribution   :     -1.956661627       4.309502248       1.889243564
                        -----------------------------------------
Total Dipole Moment    :      0.642056483      -0.069652477       0.305995438
                        -----------------------------------------
Magnitude (a.u.)       :      0.714647607
Magnitude (Debye)      :      1.816489859



--------------------
Rotational spectrum 
--------------------
 
Rotational constants in cm-1:             0.056638             0.014878             0.013495 
Rotational constants in MHz :          1697.975145           446.021541           404.573018 

Dipole components along the rotational axes: 
x,y,z [a.u.] :     0.643984    -0.000605     0.309847 
x,y,z [Debye]:     1.636878    -0.001539     0.787569 

 

Dipole moment calculation done in   0.0 sec 


---------------------------------------------------
STATIC POLARIZABILITY TENSOR (Dipole/Dipole)
---------------------------------------------------

Method             : SCF
Type of density    : Electron Density
Type of derivative : Electric Field (Direction=X)
Multiplicity       :   1
Irrep              :   0
Basis              : AO

The raw cartesian tensor (atomic units):
     133.357741565       -17.472706025       -18.787747992  
     -17.472706025       105.972827548       -14.237770723  
     -18.787747992       -14.237770723        76.811214557  
diagonalized tensor: 
      62.671719812       109.629666010       143.840397848  

Orientation: 
       0.327793445         0.226894082        -0.917098976  
       0.411841869         0.839323876         0.354854486  
       0.850257450        -0.494018731         0.181680382  

Isotropic polarizability : 105.38059


Polarizability tensor calculation done in   0.0 sec 

Maximum memory used throughout the entire PROP-calculation: 14.4 MB

--------------------------------
SUGGESTED CITATIONS FOR THIS RUN
--------------------------------

Below you find a list of papers that are relevant to this ORCA run
We neither can nor want to force you to cite these papers, but we appreciate if you do
You receive ORCA, which is the product of decades of hard work by many enthusiastic individuals, for free
The only thing we kindly ask in return is that you cite our papers,
We deeply appreciate it, if you show your appreciation for ORCA by not just citing the generic ORCA reference.

Please note that relegating all ORCA citations to the supporting information does *not* help us.
SI sections are not indexed - citations you put there will not count into any citation statistics
But we need these citations in order to attract the funding resources that allow us to do what we are doing

Therefore, if you are a happy ORCA user, please consider citing a few of the papers listed below in the main body of your paper

In addition to the list printed below, the program has created the file /kaggle/working/Tyr-2/Tyr_InterFrag.bibtex that contains the list in bibtex format
You can import this file easily into all common literature databanks and citation aid programs

It goes without saying that in many instances, there are alternative algorithms to achieve similar
results as the ones you have gotten from ORCA. It is, of course, also the case that in some instances
ORCA just re-implements algorithms worked out by others. We are fully aware of that and we are also
fully appreciative of our colleagues work. Hence this citation list should not be read as indicating
that the listed papers, which are focused on our own work, are the only ones worth citing. It simply
meant to make it easier for users to cite ORCA specific papers. It is not a substitute for doing your
own literature research and citing the relevant literature in a scientifically appropriate manner.

List of essential papers. We consider these as the minimum necessary citations

  1. Neese, F.
     Software update: the ORCA program system, version 6.0
     WIRES Comput. Molec. Sci. 2025 15(1), e70019
     doi.org/10.1002/wcms.70019

List of papers to cite with high priority. The work reported in these papers was absolutely
necessary for this run to complete.
Our perspective: the developers of density functionals and basis sets usually get cited in chemistry papers
Good! But without the algorithms to do something with them, the functionals or basis sets would not do anything.
Hence, in our opinion, the algorithm design and method developments papers are equally worthy of getting cited

  1. Neese, F.
     An improvement of the resolution of the identity approximation for the formation of the Coulomb matrix
     J. Comp. Chem. 2003 24(14), 1740-1747
     doi.org/10.1002/jcc.10318
  2. Neese, F.; Wennmohs, F.; Hansen, A.; Becker, U.
     Efficient, approximate and parallel Hartree-Fock and hybrid DFT calculations. A 'chain-of-spheres' algorithm for the Hartree-Fock exchange
     Chem. Phys. 2009 356(1-3), 98-109
     doi.org/10.1016/j.chemphys.2008.10.036
  3. Grimme, S.; Antony, J.; Ehrlich, S.; Krieg, H.
     A consistent and accurate ab initio parametrization of density functional dispersion correction (DFT-D) for the 94 elements H-Pu
     J. Chem. Phys. 2010 132 , 154104
     doi.org/10.1063/1.3382344
  4. Grimme, S.; Ehrlich, S.; Goerigk, L.
     Effect of the damping function in dispersion corrected density functional theory
     J. Comput. Chem. 2011 32(7), 1456-1465
     doi.org/10.1002/jcc.21759
  5. Helmich-Paris, B.; de Souza, B.; Neese, F.; Izsák, R.
     An improved chain of spheres for exchange algorithm
     J. Chem. Phys. 2021 155(10), 104109
     doi.org/10.1063/5.0058766
  6. Neese, F.
     The SHARK Integral Generation and Digestion System
     J. Comp. Chem. 2022 44(3), 381
     doi.org/10.1002/jcc.26942

List of suggested additional citations. These are papers that are important in the 'surrounding' of 
of this run, or papers that preceded the highly important papers. If you like your results we are grateful for a citation.

  1. Izsak, R.; Neese, F.
     An overlap fitted chain of spheres exchange method
     J. Chem. Phys. 2011 135 , 144105
     doi.org/10.1063/1.3646921
  2. Izsak, R.; Hansen, A.; Neese, F.
     The resolution of identity and chain of spheres approximations for the LPNO-CCSD singles Fock term
     Molec. Phys. 2012 110 , 2413-2417
     doi.org/10.1080/00268976.2012.687466
  3. Neese, F.
     The ORCA program system
     WIRES Comput. Molec. Sci. 2012 2(1), 73-78
     doi.org/10.1002/wcms.81
  4. Izsak, R.; Neese, F.; Klopper, W.
     Robust fitting techniques in the chain of spheres approximation to the Fock exchange: The role of the complementary space
     J. Chem. Phys. 2013 139 , 
     doi.org/10.1063/1.4819264
  5. Neese, F.
     Software update: the ORCA program system, version 4.0
     WIRES Comput. Molec. Sci. 2018 8(1), 1-6
     doi.org/10.1002/wcms.1327
  6. Neese, F.; Wennmohs, F.; Becker, U.; Riplinger, C.
     The ORCA quantum chemistry program package
     J. Chem. Phys. 2020 152(22), 224108
     doi.org/10.1063/5.0004608
  7. Neese, F.
     Software update: The ORCA program system—Version 5.0
     WIRES Comput. Molec. Sci. 2022 12(1), e1606
     doi.org/10.1002/wcms.1606

List of optional additional citations

  1. Neese, F.
     Approximate second-order SCF convergence for spin unrestricted wavefunctions
     Chem. Phys. Lett. 2000 325(1-3), 93-98
     doi.org/10.1016/s0009-2614(00)00662-x

Timings for individual modules:

Sum of individual times          ...      113.931 sec (=   1.899 min)
Startup calculation              ...        3.369 sec (=   0.056 min)   3.0 %
SCF iterations                   ...       78.050 sec (=   1.301 min)  68.5 %
SCF Response                     ...       32.052 sec (=   0.534 min)  28.1 %
Property calculations            ...        0.460 sec (=   0.008 min)   0.4 %
                             ****ORCA TERMINATED NORMALLY****
TOTAL RUN TIME: 0 days 0 hours 1 minutes 54 seconds 464 msec
