[Molden Format]
[Title]
 Molden file created by orca_2mkl for BaseName=/kaggle/working/Trp-OH-2/Trp-OH_InterFrag

[Atoms] AU
O    1   8         -4.8806542676        -5.1843068011        -0.8652621330 
O    2   8          2.9909281337        -1.5314850815         3.3100631934 
O    3   8          4.2877583622        -4.0393141777         0.1226753514 
N    4   7         -2.1707529765         4.7593697546         0.6691595829 
N    5   7          7.7095686209        -0.1412475799        -1.2281651398 
C    6   6          0.9370320419         2.3413669005        -0.9886083372 
C    7   6          3.4552773085         1.5340532194        -1.9985762490 
C    8   6         -1.2714228607         0.7856668683        -0.6209866843 
C    9   6          5.3016115509         0.4477630485         0.0029007296 
C   10   6         -3.1851787522         2.3654155553         0.4184344989 
C   11   6          0.2916244267         4.7311882688        -0.1780084224 
C   12   6         -1.8061548854        -1.7828583416        -1.0734003489 
C   13   6         -5.5913216850         1.4434540793         1.0037299258 
C   14   6         -4.2008234012        -2.6857789370        -0.4834921005 
C   15   6         -6.0830151970        -1.0950603898         0.5442997081 
C   16   6          4.1897325985        -1.9545437403         1.1055540390 
H   17   1          3.2250444147         0.1078202143        -3.4824043271 
H   18   1          4.4182534004         3.1552511594        -2.8545617164 
H   19   1          5.4527669649         1.8270458078         1.5451685885 
H   20   1          1.4151686585         6.4374314437        -0.1508077044 
H   21   1         -3.0931623175         6.2918034786         1.3317448086 
H   22   1         -0.3847047772        -3.0477692060        -1.8447128574 
H   23   1         -7.0353313438         2.6681893662         1.7939548135 
H   24   1         -7.9221476931        -1.8970204768         0.9688890450 
H   25   1          8.9724102352        -0.6873028435         0.1187957437 
H   26   1          8.3986931604         1.5057451219        -1.9475215180 
H   27   1         -3.4494739595        -6.0757151850        -1.5787150068 
H   28   1          2.1984903767        -3.1101074918         3.8349856497 
[GTO]
  1 0
s   6 1.0 
     5484.6717000000         0.8317352088
      825.2349500000         1.5308074829
      188.0469600000         2.4771490916
       52.9645000000         3.2562802462
       16.8975700000         2.7928936336
        5.7996353000         0.9549376963
s   3 1.0 
       15.5396160000        -0.6179336976
        3.5999336000        -0.2757210088
        1.0137618000         0.8142076427
p   3 1.0 
       15.5396160000         3.1169455889
        3.5999336000         2.4014372483
        1.0137618000         1.0543605133
s   1 1.0 
        0.2700058000         0.2669561389
p   1 1.0 
        0.2700058000         0.2774319373
d   1 1.0 
        0.8000000000         1.9292013661

  2 0
s   6 1.0 
     5484.6717000000         0.8317352088
      825.2349500000         1.5308074829
      188.0469600000         2.4771490916
       52.9645000000         3.2562802462
       16.8975700000         2.7928936336
        5.7996353000         0.9549376963
s   3 1.0 
       15.5396160000        -0.6179336976
        3.5999336000        -0.2757210088
        1.0137618000         0.8142076427
p   3 1.0 
       15.5396160000         3.1169455889
        3.5999336000         2.4014372483
        1.0137618000         1.0543605133
s   1 1.0 
        0.2700058000         0.2669561389
p   1 1.0 
        0.2700058000         0.2774319373
d   1 1.0 
        0.8000000000         1.9292013661

  3 0
s   6 1.0 
     5484.6717000000         0.8317352088
      825.2349500000         1.5308074829
      188.0469600000         2.4771490916
       52.9645000000         3.2562802462
       16.8975700000         2.7928936336
        5.7996353000         0.9549376963
s   3 1.0 
       15.5396160000        -0.6179336976
        3.5999336000        -0.2757210088
        1.0137618000         0.8142076427
p   3 1.0 
       15.5396160000         3.1169455889
        3.5999336000         2.4014372483
        1.0137618000         1.0543605133
s   1 1.0 
        0.2700058000         0.2669561389
p   1 1.0 
        0.2700058000         0.2774319373
d   1 1.0 
        0.8000000000         1.9292013661

  4 0
s   6 1.0 
     4173.5110000000         0.6790079572
      627.4579000000         1.2504643275
      142.9021000000         2.0203691378
       40.2343300000         2.6442129843
       12.8202100000         2.2650039968
        4.3904370000         0.7791872309
s   3 1.0 
       11.6263580000        -0.5158738103
        2.7162800000        -0.2550239186
        0.7722180000         0.6727344163
p   3 1.0 
       11.6263580000         2.0680595460
        2.7162800000         1.6100106206
        0.7722180000         0.7644899877
s   1 1.0 
        0.2120313000         0.2226947990
p   1 1.0 
        0.2120313000         0.2050879094
d   1 1.0 
        0.8000000000         1.9292013661

  5 0
s   6 1.0 
     4173.5110000000         0.6790079572
      627.4579000000         1.2504643275
      142.9021000000         2.0203691378
       40.2343300000         2.6442129843
       12.8202100000         2.2650039968
        4.3904370000         0.7791872309
s   3 1.0 
       11.6263580000        -0.5158738103
        2.7162800000        -0.2550239186
        0.7722180000         0.6727344163
p   3 1.0 
       11.6263580000         2.0680595460
        2.7162800000         1.6100106206
        0.7722180000         0.7644899877
s   1 1.0 
        0.2120313000         0.2226947990
p   1 1.0 
        0.2120313000         0.2050879094
d   1 1.0 
        0.8000000000         1.9292013661

  6 0
s   6 1.0 
     3047.5249000000         0.5363343823
      457.3695100000         0.9894506076
      103.9486900000         1.5972822308
       29.2101550000         2.0791870615
        9.2866630000         1.7741742532
        3.1639270000         0.6125798260
s   3 1.0 
        7.8682724000        -0.3995563516
        1.8812885000        -0.1841552393
        0.5442493000         0.5163903794
p   3 1.0 
        7.8682724000         1.2960827175
        1.8812885000         0.9937536282
        0.5442493000         0.4959527138
s   1 1.0 
        0.1687144000         0.1876178721
p   1 1.0 
        0.1687144000         0.1541275509
d   1 1.0 
        0.8000000000         1.9292013661

  7 0
s   6 1.0 
     3047.5249000000         0.5363343823
      457.3695100000         0.9894506076
      103.9486900000         1.5972822308
       29.2101550000         2.0791870615
        9.2866630000         1.7741742532
        3.1639270000         0.6125798260
s   3 1.0 
        7.8682724000        -0.3995563516
        1.8812885000        -0.1841552393
        0.5442493000         0.5163903794
p   3 1.0 
        7.8682724000         1.2960827175
        1.8812885000         0.9937536282
        0.5442493000         0.4959527138
s   1 1.0 
        0.1687144000         0.1876178721
p   1 1.0 
        0.1687144000         0.1541275509
d   1 1.0 
        0.8000000000         1.9292013661

  8 0
s   6 1.0 
     3047.5249000000         0.5363343823
      457.3695100000         0.9894506076
      103.9486900000         1.5972822308
       29.2101550000         2.0791870615
        9.2866630000         1.7741742532
        3.1639270000         0.6125798260
s   3 1.0 
        7.8682724000        -0.3995563516
        1.8812885000        -0.1841552393
        0.5442493000         0.5163903794
p   3 1.0 
        7.8682724000         1.2960827175
        1.8812885000         0.9937536282
        0.5442493000         0.4959527138
s   1 1.0 
        0.1687144000         0.1876178721
p   1 1.0 
        0.1687144000         0.1541275509
d   1 1.0 
        0.8000000000         1.9292013661

  9 0
s   6 1.0 
     3047.5249000000         0.5363343823
      457.3695100000         0.9894506076
      103.9486900000         1.5972822308
       29.2101550000         2.0791870615
        9.2866630000         1.7741742532
        3.1639270000         0.6125798260
s   3 1.0 
        7.8682724000        -0.3995563516
        1.8812885000        -0.1841552393
        0.5442493000         0.5163903794
p   3 1.0 
        7.8682724000         1.2960827175
        1.8812885000         0.9937536282
        0.5442493000         0.4959527138
s   1 1.0 
        0.1687144000         0.1876178721
p   1 1.0 
        0.1687144000         0.1541275509
d   1 1.0 
        0.8000000000         1.9292013661

 10 0
s   6 1.0 
     3047.5249000000         0.5363343823
      457.3695100000         0.9894506076
      103.9486900000         1.5972822308
       29.2101550000         2.0791870615
        9.2866630000         1.7741742532
        3.1639270000         0.6125798260
s   3 1.0 
        7.8682724000        -0.3995563516
        1.8812885000        -0.1841552393
        0.5442493000         0.5163903794
p   3 1.0 
        7.8682724000         1.2960827175
        1.8812885000         0.9937536282
        0.5442493000         0.4959527138
s   1 1.0 
        0.1687144000         0.1876178721
p   1 1.0 
        0.1687144000         0.1541275509
d   1 1.0 
        0.8000000000         1.9292013661

 11 0
s   6 1.0 
     3047.5249000000         0.5363343823
      457.3695100000         0.9894506076
      103.9486900000         1.5972822308
       29.2101550000         2.0791870615
        9.2866630000         1.7741742532
        3.1639270000         0.6125798260
s   3 1.0 
        7.8682724000        -0.3995563516
        1.8812885000        -0.1841552393
        0.5442493000         0.5163903794
p   3 1.0 
        7.8682724000         1.2960827175
        1.8812885000         0.9937536282
        0.5442493000         0.4959527138
s   1 1.0 
        0.1687144000         0.1876178721
p   1 1.0 
        0.1687144000         0.1541275509
d   1 1.0 
        0.8000000000         1.9292013661

 12 0
s   6 1.0 
     3047.5249000000         0.5363343823
      457.3695100000         0.9894506076
      103.9486900000         1.5972822308
       29.2101550000         2.0791870615
        9.2866630000         1.7741742532
        3.1639270000         0.6125798260
s   3 1.0 
        7.8682724000        -0.3995563516
        1.8812885000        -0.1841552393
        0.5442493000         0.5163903794
p   3 1.0 
        7.8682724000         1.2960827175
        1.8812885000         0.9937536282
        0.5442493000         0.4959527138
s   1 1.0 
        0.1687144000         0.1876178721
p   1 1.0 
        0.1687144000         0.1541275509
d   1 1.0 
        0.8000000000         1.9292013661

 13 0
s   6 1.0 
     3047.5249000000         0.5363343823
      457.3695100000         0.9894506076
      103.9486900000         1.5972822308
       29.2101550000         2.0791870615
        9.2866630000         1.7741742532
        3.1639270000         0.6125798260
s   3 1.0 
        7.8682724000        -0.3995563516
        1.8812885000        -0.1841552393
        0.5442493000         0.5163903794
p   3 1.0 
        7.8682724000         1.2960827175
        1.8812885000         0.9937536282
        0.5442493000         0.4959527138
s   1 1.0 
        0.1687144000         0.1876178721
p   1 1.0 
        0.1687144000         0.1541275509
d   1 1.0 
        0.8000000000         1.9292013661

 14 0
s   6 1.0 
     3047.5249000000         0.5363343823
      457.3695100000         0.9894506076
      103.9486900000         1.5972822308
       29.2101550000         2.0791870615
        9.2866630000         1.7741742532
        3.1639270000         0.6125798260
s   3 1.0 
        7.8682724000        -0.3995563516
        1.8812885000        -0.1841552393
        0.5442493000         0.5163903794
p   3 1.0 
        7.8682724000         1.2960827175
        1.8812885000         0.9937536282
        0.5442493000         0.4959527138
s   1 1.0 
        0.1687144000         0.1876178721
p   1 1.0 
        0.1687144000         0.1541275509
d   1 1.0 
        0.8000000000         1.9292013661

 15 0
s   6 1.0 
     3047.5249000000         0.5363343823
      457.3695100000         0.9894506076
      103.9486900000         1.5972822308
       29.2101550000         2.0791870615
        9.2866630000         1.7741742532
        3.1639270000         0.6125798260
s   3 1.0 
        7.8682724000        -0.3995563516
        1.8812885000        -0.1841552393
        0.5442493000         0.5163903794
p   3 1.0 
        7.8682724000         1.2960827175
        1.8812885000         0.9937536282
        0.5442493000         0.4959527138
s   1 1.0 
        0.1687144000         0.1876178721
p   1 1.0 
        0.1687144000         0.1541275509
d   1 1.0 
        0.8000000000         1.9292013661

 16 0
s   6 1.0 
     3047.5249000000         0.5363343823
      457.3695100000         0.9894506076
      103.9486900000         1.5972822308
       29.2101550000         2.0791870615
        9.2866630000         1.7741742532
        3.1639270000         0.6125798260
s   3 1.0 
        7.8682724000        -0.3995563516
        1.8812885000        -0.1841552393
        0.5442493000         0.5163903794
p   3 1.0 
        7.8682724000         1.2960827175
        1.8812885000         0.9937536282
        0.5442493000         0.4959527138
s   1 1.0 
        0.1687144000         0.1876178721
p   1 1.0 
        0.1687144000         0.1541275509
d   1 1.0 
        0.8000000000         1.9292013661

 17 0
s   3 1.0 
       18.7311370000         0.2149354183
        2.8253937000         0.3645711272
        0.6401217000         0.4150514277
s   1 1.0 
        0.1612778000         0.1813806839
p   1 1.0 
        1.1000000000         1.6057611426

 18 0
s   3 1.0 
       18.7311370000         0.2149354183
        2.8253937000         0.3645711272
        0.6401217000         0.4150514277
s   1 1.0 
        0.1612778000         0.1813806839
p   1 1.0 
        1.1000000000         1.6057611426

 19 0
s   3 1.0 
       18.7311370000         0.2149354183
        2.8253937000         0.3645711272
        0.6401217000         0.4150514277
s   1 1.0 
        0.1612778000         0.1813806839
p   1 1.0 
        1.1000000000         1.6057611426

 20 0
s   3 1.0 
       18.7311370000         0.2149354183
        2.8253937000         0.3645711272
        0.6401217000         0.4150514277
s   1 1.0 
        0.1612778000         0.1813806839
p   1 1.0 
        1.1000000000         1.6057611426

 21 0
s   3 1.0 
       18.7311370000         0.2149354183
        2.8253937000         0.3645711272
        0.6401217000         0.4150514277
s   1 1.0 
        0.1612778000         0.1813806839
p   1 1.0 
        1.1000000000         1.6057611426

 22 0
s   3 1.0 
       18.7311370000         0.2149354183
        2.8253937000         0.3645711272
        0.6401217000         0.4150514277
s   1 1.0 
        0.1612778000         0.1813806839
p   1 1.0 
        1.1000000000         1.6057611426

 23 0
s   3 1.0 
       18.7311370000         0.2149354183
        2.8253937000         0.3645711272
        0.6401217000         0.4150514277
s   1 1.0 
        0.1612778000         0.1813806839
p   1 1.0 
        1.1000000000         1.6057611426

 24 0
s   3 1.0 
       18.7311370000         0.2149354183
        2.8253937000         0.3645711272
        0.6401217000         0.4150514277
s   1 1.0 
        0.1612778000         0.1813806839
p   1 1.0 
        1.1000000000         1.6057611426

 25 0
s   3 1.0 
       18.7311370000         0.2149354183
        2.8253937000         0.3645711272
        0.6401217000         0.4150514277
s   1 1.0 
        0.1612778000         0.1813806839
p   1 1.0 
        1.1000000000         1.6057611426

 26 0
s   3 1.0 
       18.7311370000         0.2149354183
        2.8253937000         0.3645711272
        0.6401217000         0.4150514277
s   1 1.0 
        0.1612778000         0.1813806839
p   1 1.0 
        1.1000000000         1.6057611426

 27 0
s   3 1.0 
       18.7311370000         0.2149354183
        2.8253937000         0.3645711272
        0.6401217000         0.4150514277
s   1 1.0 
        0.1612778000         0.1813806839
p   1 1.0 
        1.1000000000         1.6057611426

 28 0
s   3 1.0 
       18.7311370000         0.2149354183
        2.8253937000         0.3645711272
        0.6401217000         0.4150514277
s   1 1.0 
        0.1612778000         0.1813806839
p   1 1.0 
        1.1000000000         1.6057611426

[5D]
[7F]
[9G]
[MO]
 Sym=     1a
 Ene= -1.91852992518258E+01
 Spin= Alpha
 Occup= 2.000000
  1      -0.000009122765
  2      -0.000007697881
  3      -0.000002424101
  4      -0.000000642988
  5      -0.000008953084
  6       0.000059074434
  7       0.000006684081
  8       0.000023769777
  9       0.000065267317
 10       0.000004533970
 11       0.000004035147
 12       0.000007705308
 13       0.000004535575
 14       0.000008740550
 15      -0.995107023210
 16      -0.030369394246
 17      -0.000099659731
 18       0.001762811510
 19       0.001023062020
 20       0.022003033871
 21       0.003135104379
 22      -0.001728569650
 23      -0.006164425672
 24       0.000719707155
 25      -0.000312468619
 26       0.000601248687
 27       0.000375355796
 28      -0.000590146014
 29       0.000539429133
 30       0.000556058234
 31       0.000085105954
 32       0.000156807562
 33      -0.000053067005
 34      -0.002477023486
 35      -0.001386671090
 36      -0.001376640082
 37       0.001583059158
 38       0.000290906344
 39      -0.000055653453
 40       0.000297823661
 41       0.000263936855
 42      -0.000345245505
 43       0.000004042477
 44       0.000038420546
 45      -0.000014178429
 46      -0.000009187096
 47      -0.000006996962
 48      -0.000325825746
 49       0.000211028162
 50       0.000207027482
 51       0.000026846183
 52       0.000004071907
 53       0.000002578408
 54      -0.000001289500
 55       0.000006679563
 56      -0.000006989056
 57       0.000019250940
 58       0.000319159487
 59      -0.000143006971
 60      -0.000143991047
 61       0.000087728365
 62       0.000655449741
 63      -0.000147840069
 64       0.001133393750
 65      -0.000920162960
 66      -0.000082797141
 67       0.000098664663
 68       0.000015207355
 69       0.000023560525
 70      -0.000022620945
 71      -0.000035940377
 72      -0.000402991961
 73      -0.000100108628
 74       0.000119465312
 75       0.000021322301
 76       0.001615869161
 77       0.000381810432
 78      -0.001706342138
 79      -0.000414312195
 80      -0.000004590672
 81      -0.000015600278
 82      -0.000077570641
 83       0.000019425479
 84       0.000043983115
 85      -0.000046209366
 86      -0.000382659802
 87       0.000142473737
 88      -0.000048558741
 89       0.000011431878
 90       0.002050405635
 91       0.001487912679
 92      -0.001061126070
 93       0.000194703688
 94      -0.000022743879
 95       0.000033343221
 96      -0.000065306969
 97      -0.000005508850
 98      -0.000127298434
 99       0.000002888605
100      -0.000019725165
101       0.000022139052
102      -0.000004402084
103      -0.000014158664
104      -0.000438905067
105      -0.001723136278
106       0.000460524974
107       0.000635329913
108       0.000022032491
109       0.000042681104
110      -0.000005382432
111      -0.000005234205
112      -0.000014768270
113       0.000074691242
114       0.001021627895
115      -0.000152993858
116      -0.000254180939
117      -0.000073328182
118      -0.003229729134
119       0.000288672795
120       0.001914873428
121       0.003955965502
122       0.000086653784
123      -0.000159906381
124      -0.000184084480
125       0.000165107905
126       0.000093687667
127       0.000007927808
128       0.000069167169
129      -0.000008982558
130       0.000006756636
131       0.000011200803
132      -0.001115319753
133      -0.000055448329
134       0.000949126040
135       0.000240688776
136      -0.000000551671
137       0.000005683113
138      -0.000004905910
139      -0.000005962151
140       0.000007807679
141      -0.000006556096
142      -0.000027311515
143       0.000008661130
144      -0.000035989803
145       0.000000412966
146       0.000849295615
147       0.000222688282
148      -0.000399209950
149      -0.000269218160
150      -0.000013449697
151      -0.000010706402
152       0.000019465916
153      -0.000018496882
154      -0.000003650524
155      -0.000020107640
156      -0.000238925885
157      -0.000120238573
158       0.000043877938
159      -0.000055055521
160       0.000475818278
161       0.001559540895
162      -0.000035339372
163      -0.000098537256
164      -0.000018607843
165       0.000016174387
166       0.000015427081
167      -0.000010529361
168      -0.000005542557
169      -0.000004783240
170      -0.000025644399
171       0.000013593043
172       0.000009267363
173       0.000003014879
174       0.000684857301
175       0.000241844246
176      -0.000400476960
177      -0.000210448371
178      -0.000004370579
179      -0.000003230851
180       0.000006742010
181       0.000004271059
182      -0.000001824480
183      -0.000003917863
184      -0.000014440450
185       0.000032633565
186       0.000003755946
187       0.000016799873
188       0.000991193682
189       0.000215122691
190       0.000442164209
191      -0.000212923718
192       0.000002784463
193      -0.000020307740
194      -0.000005777524
195      -0.000000756193
196       0.000006260977
197       0.000004447541
198       0.000028025897
199      -0.000003021805
200      -0.000001094770
201      -0.000003734352
202      -0.000619874112
203      -0.000230951880
204      -0.000244435328
205       0.000103544012
206      -0.000001235240
207       0.000007365220
208      -0.000010121089
209       0.000005083778
210      -0.000003134871
211      -0.000033660810
212      -0.000009865741
213       0.000216586925
214      -0.000021234749
215      -0.000692406178
216      -0.007904821631
217       0.005855165668
218      -0.002133749791
219      -0.010357724272
220       0.000113349685
221       0.000142838064
222       0.000230673781
223       0.000128362861
224      -0.000305080189
225      -0.000024197818
226      -0.000849373066
227       0.000003445799
228       0.000020002986
229      -0.000085825949
230      -0.000084617667
231       0.000040393081
232      -0.000058636204
233       0.000023199590
234       0.000021438311
235      -0.000050612720
236      -0.001526739646
237      -0.000058393810
238      -0.000042090506
239       0.000043349035
240      -0.000027495797
241       0.000042856071
242      -0.000005111994
243       0.000004935862
244       0.000012589928
245       0.000007506909
246      -0.000011240335
247      -0.000004321801
248      -0.000003585976
249      -0.000004560671
250      -0.000190703303
251      -0.000588982971
252      -0.000026160790
253      -0.000042735410
254      -0.000020104264
255       0.000019494976
256       0.000121411666
257      -0.000000195542
258       0.000004017167
259       0.000003465394
260      -0.000005492986
261      -0.000060032648
262      -0.000000239563
263       0.000004063151
264      -0.000005319893
265       0.000175290211
266       0.000322930287
267      -0.000042743328
268      -0.000062924049
269      -0.000004529087
270      -0.000180043138
271      -0.000685180798
272       0.000012711955
273       0.000060216402
274       0.000019594708
275       0.000001584890
276       0.000065485781
277      -0.000002983611
278       0.000009328591
279      -0.000003001085
280       0.000434976956
281      -0.000411549964
282       0.000644010485
283       0.001601974189
284      -0.000271291962
 Sym=     1a
 Ene= -1.91545323061955E+01
 Spin= Alpha
 Occup= 2.000000
  1       0.995139652095
  2       0.030614912277
  3       0.001882283042
  4       0.000783974530
  5      -0.000451494785
  6      -0.023811888408
  7      -0.002713973558
  8      -0.007186390305
  9      -0.000845173629
 10       0.000183239858
 11      -0.000457537676
 12       0.000113804328
 13       0.000768265461
 14      -0.000971328927
 15      -0.000008651424
 16       0.000004066855
 17      -0.000006093348
 18      -0.000001809542
 19      -0.000006924665
 20      -0.000018836254
 21       0.000010281674
 22       0.000009618222
 23       0.000058452732
 24      -0.000008837766
 25      -0.000003173836
 26      -0.000011746347
 27       0.000000284726
 28       0.000003212865
 29       0.000063262953
 30       0.000044808007
 31      -0.000013157623
 32      -0.000004304476
 33      -0.000016912908
 34      -0.000146411404
 35       0.000088868067
 36      -0.000017141158
 37       0.000034688184
 38       0.000001827648
 39      -0.000005521902
 40       0.000003697619
 41      -0.000006599962
 42       0.000010007514
 43      -0.000032482960
 44      -0.000304536922
 45      -0.000018280000
 46       0.000011741010
 47       0.000007785231
 48       0.002826772839
 49       0.000153859522
 50      -0.000976652013
 51      -0.000288570213
 52      -0.000026448171
 53      -0.000003847496
 54       0.000011079529
 55      -0.000022213478
 56       0.000019672585
 57       0.000001154720
 58       0.000006163186
 59       0.000004351041
 60       0.000001501196
 61       0.000003664798
 62      -0.000109194394
 63       0.000034813653
 64       0.000032144724
 65      -0.000062774430
 66      -0.000002708479
 67       0.000005229654
 68       0.000003985180
 69      -0.000005694008
 70      -0.000004541890
 71      -0.000058999606
 72      -0.000423887778
 73       0.000020540252
 74       0.000027985123
 75      -0.000007675295
 76       0.002636204578
 77      -0.002278195035
 78      -0.001475178946
 79       0.000408561935
 80      -0.000094477817
 81      -0.000034399432
 82       0.000003622008
 83       0.000001760157
 84       0.000120730363
 85      -0.000012414778
 86      -0.000120273456
 87       0.000016350499
 88      -0.000014408418
 89      -0.000010038324
 90       0.000898021931
 91      -0.000039289894
 92       0.000599875793
 93       0.000318047755
 94      -0.000003688959
 95      -0.000000003289
 96       0.000017561242
 97      -0.000030517937
 98      -0.000035193479
 99       0.000043436390
100       0.000151435273
101       0.000219963206
102       0.000177655578
103      -0.000030768396
104      -0.009534183064
105      -0.000635479245
106       0.002513400861
107       0.000848794811
108       0.000052171198
109      -0.000002680048
110       0.000036526278
111      -0.000027751723
112      -0.000150607347
113       0.000002763347
114       0.000027176015
115      -0.000013451009
116       0.000015769959
117       0.000009762081
118      -0.000058245502
119       0.000175470045
120      -0.000380164024
121      -0.000004222288
122       0.000002201992
123      -0.000008661566
124       0.000005251115
125       0.000005028206
126       0.000007343441
127      -0.000035270639
128      -0.000420719438
129       0.000032252667
130       0.000135225558
131       0.000021576983
132       0.002534559226
133      -0.002672878860
134      -0.003359733450
135       0.000069452664
136      -0.000002831138
137      -0.000042200906
138      -0.000015069941
139       0.000096608610
140      -0.000015884351
141      -0.000004690357
142      -0.000108988694
143       0.000053088297
144       0.000013630792
145      -0.000012762906
146      -0.000413784632
147       0.000980583080
148       0.000582470045
149      -0.000202531177
150       0.000010807478
151      -0.000007030974
152       0.000007829165
153       0.000006656908
154      -0.000034716587
155      -0.000063657395
156      -0.000502516669
157      -0.000021427575
158      -0.000151314071
159      -0.000023707766
160       0.008616886783
161      -0.002808754272
162       0.007910920344
163       0.002859599127
164      -0.000077690529
165      -0.000213001753
166       0.000134950774
167       0.000148232710
168      -0.000326265565
169       0.000029903150
170       0.000056094465
171      -0.000040552969
172       0.000209867665
173       0.000065195333
174      -0.008134597783
175      -0.002462340146
176       0.002260011774
177       0.001393521204
178       0.000011207951
179       0.000026328168
180      -0.000028084430
181      -0.000001339525
182       0.000056704826
183       0.000120646694
184       0.001387367317
185      -0.000087964796
186      -0.000262360367
187      -0.000036800499
188       0.000422943531
189      -0.002853776752
190      -0.018248746652
191      -0.003490219949
192      -0.000174962371
193      -0.000056942512
194       0.000133289258
195      -0.000182267617
196      -0.000001859650
197      -0.000077903990
198      -0.000625890731
199      -0.000066822006
200      -0.000032821099
201       0.000014473343
202       0.009452754156
203       0.007215945609
204       0.004052481162
205      -0.001451537571
206      -0.000161658398
207      -0.000164308124
208      -0.000050553275
209       0.000288282400
210       0.000178020784
211       0.000000032794
212       0.000002067525
213       0.000008278640
214       0.000010489076
215       0.000007311329
216      -0.000045181202
217      -0.000199884333
218      -0.000136704495
219       0.000041684125
220       0.000005655927
221       0.000002077539
222       0.000012488485
223      -0.000005941554
224       0.000000571929
225       0.000032748181
226       0.000121656477
227       0.000013914927
228      -0.000009582698
229      -0.000000726287
230      -0.000064647325
231      -0.000121869020
232      -0.000022959384
233      -0.000002714946
234      -0.000010908293
235       0.000032898048
236       0.000135723022
237      -0.000016671705
238       0.000004232331
239      -0.000010109488
240      -0.000076794299
241      -0.000367422202
242      -0.000021782804
243      -0.000000324334
244       0.000007687157
245      -0.000019534381
246       0.000206344910
247       0.000002020677
248       0.000016620218
249       0.000003300433