
                                 *****************
                                 * O   R   C   A *
                                 *****************

                                            #,                                       
                                            ###                                      
                                            ####                                     
                                            #####                                    
                                            ######                                   
                                           ########,                                 
                                     ,,################,,,,,                         
                               ,,#################################,,                 
                          ,,##########################################,,             
                       ,#########################################, ''#####,          
                    ,#############################################,,   '####,        
                  ,##################################################,,,,####,       
                ,###########''''           ''''###############################       
              ,#####''   ,,,,##########,,,,          '''####'''          '####       
            ,##' ,,,,###########################,,,                        '##       
           ' ,,###''''                  '''############,,,                           
         ,,##''                                '''############,,,,        ,,,,,,###''
      ,#''                                            '''#######################'''  
     '                                                          ''''####''''         
             ,#######,   #######,   ,#######,      ##                                
            ,#'     '#,  ##    ##  ,#'     '#,    #''#        ,####,    ,#,          
            ##       ##  ##   ,#'  ##            #'  '#       #'       ,# #          
            ##       ##  #######   ##           ,######,      #####,      #          
            '#,     ,#'  ##    ##  '#,     ,#' ,#      #,     #,   #      #          
             '#######'   ##     ##  '#######'  #'      '#     '####' #    #          



                #########################################################
                #                        -***-                          #
                #          Department of theory and spectroscopy        #
                #                                                       #
                #                      Frank Neese                      #
                #                                                       #
                #     Directorship, Architecture, Infrastructure        #
                #                    SHARK, DRIVERS                     #
                #        Core code/Algorithms in most modules           #
                #                                                       #
                #        Max Planck Institute fuer Kohlenforschung      #
                #                Kaiser Wilhelm Platz 1                 #
                #                 D-45470 Muelheim/Ruhr                 #
                #                      Germany                          #
                #                                                       #
                #                  All rights reserved                  #
                #                        -***-                          #
                #########################################################


                         Program Version 6.1.1  -  RELEASE   -
                                (GIT: $487d211c$)
                          ($2025-11-21 10:33:24 +0100$)
                                                                         
                                  - NO-DMRG VERSION -                    
                                                                         


 With contributions from (in alphabetic order):
[Max-Planck-Institut fuer Kohlenforschung]                               
  Daniel Aravena         : Magnetic Suceptibility                        
  Michael Atanasov       : Ab Initio Ligand Field Theory (pilot matlab implementation)
  Alexander A. Auer      : GIAO ZORA, VPT2 properties, NMR spectrum      
  Ute Becker             : All parallelization in ORCA, NUMFREQ, NUMCALC 
  Giovanni Bistoni       : ED, misc. LED, open-shell LED, HFLD           
  Dmytro Bykov           : pre 5.0 version of the SCF Hessian            
  Marcos Casanova-Páez   : Triplet and SCS-CIS(D). UHF-(DLPNO)-IP/EA/STEOM-CCSD. UHF-CVS-IP/STEOM-CCSD   
  Vijay G. Chilkuri      : MRCI spin determinant printing, contributions to CSF-ICE 
  Pauline Colinet        : FMM embedding                                 
  Dipayan Datta          : RHF DLPNO-CCSD density                        
  Achintya Kumar Dutta   : EOM-CC, STEOM-CC                              
  Nicolas Foglia         : Exact transition moments, OPA infrastructure, MCD improvements    
  Dmitry Ganyushin       : Spin-Orbit,Spin-Spin,Magnetic field MRCI      
  Miquel Garcia-Rates    : C-PCM and meta-GGA Hessian, CCSD/C-PCM, Gaussian charge scheme 
  Tiago L. C. Gouveia    : GS-ROHF, GS-ROCIS                             
  Yang Guo               : DLPNO-NEVPT2, F12-NEVPT2, CIM, IAO-localization        
  Andreas Hansen         : Spin unrestricted coupled pair/coupled cluster methods 
  Ingolf Harden          : AUTO-CI MPn and infrastructure                
  Benjamin Helmich-Paris : MC-RPA, TRAH-(SCF,CASSCF), AVAS, COSX integrals, SCF dyn. polar., MC-PDFT, srDFT 
  Lee Huntington         : MR-EOM, pCC                                   
  Robert Izsak           : Overlap fitted RIJCOSX, COSX-SCS-MP3, EOM     
  Riya Kayal             : Wick's Theorem for AUTO-CI, AUTO-CI UHF-CCSDT 
  Emily Kempfer          : AUTO-CI RHF CISDT and CCSDT, approximate NEVPT4
  Christian Kollmar      : KDIIS, OOCD, Brueckner-CCSD(T), CCSD density, CASPT2, CASPT2-K, improved NEVPT2 
  Axel Koslowski         : Symmetry handling                             
  Simone Kossmann        : meta-GGA functionals, TD-DFT gradient, OOMP2, (MP2 Hessian; deprecated post 5.0) 
  Lucas Lang             : DCDCAS, Hyperfine gauge corrections, ICE-SOC+SSC
  Marvin Lechner         : AUTO-CI (C++ implementation), FIC-MRCC        
  Spencer Leger          : CASSCF response                               
  Dagmar Lenk            : GEPOL surface, SMD, ORCA-2-JSON               
  Dimitrios Liakos       : Extrapolation schemes; Compound Job, Property file
  Dimitrios Manganas     : Further ROCIS development; embedding schemes. LFT, Crystal Embedding 
  Dimitrios Pantazis     : SARC Basis sets                               
  Anastasios Papadopoulos: AUTO-CI, single reference methods and gradients 
  Taras Petrenko         : pre 6.0 DFT Hessian and TD-DFT gradient,  ECA, NRVS 
  Petra Pikulova         : Analytic Raman intensities                    
  Peter Pinski           : DLPNO-MP2, DLPNO-MP2 Gradient                 
  Shashank Vittal Rao    : ES-AILFT, MagRelax                            
  Christoph Reimann      : Effective Core Potentials                     
  Marius Retegan         : Local ZFS, SOC                                
  Christoph Riplinger    : Optimizer, TS searches, QM/MM, DLPNO-CCSD(T), (RO)-DLPNO pert. Triples 
  Michael Roemelt        : Original ROCIS implementation, recursive CI coupling coefficients
  Masaaki Saitow         : Open-shell DLPNO-CCSD energy and density      
  Barbara Sandhoefer     : DKH picture change effects                    
  Yorick L. A. Schmerwitz: GMF and freeze-and-release deltaSCF, NEB S-IDPP initial path                    
  Kantharuban Sivalingam : CASSCF convergence/infrastructure, NEVPT2, NEVPT3, NEVPT4(SD), FIC-MRCI and CEPA variants
  Bernardo de Souza      : ESD, SOC TD-DFT                               
  Georgi L. Stoychev     : AutoAux, RI-MP2 NMR, DLPNO-MP2 response, X2C  
  Van Anh Tran           : RI-MP2 g-tensors                              
  Willem Van den Heuvel  : Paramagnetic NMR                              
  Zikuan Wang            : NOTCH, Electric field optimization            
  Frank Wennmohs         : Technical directorship and infrastructure     
  Hang Xu                : AUTO-CI-Response properties                   
                                                                         
[FACCTs GmbH]                                                            
  Markus Bursch, Nicolas Foglia, Miquel Garcia-Rates, Ingolf Harden, Hagen Neugebauer, Anastasios Papadopoulos, 
  Christoph Riplinger, Bernardo de Souza, Georgi L. Stoychev                                                    
                                                                 
  APM, various basis sets, CI-OPT, improved COSX, DLPNO-Multilevel,           
  DOCKER, DRACO, updates on ESD, Fragmentator, GOAT, IRC, LR-CPCM, L-BFGS, MBIS, meta-GGA TD-DFT gradient, ML-optimized integration grids, 
  MM, NACMEs, nearIR, NEB, NEB-TS, NL-DFT gradient (VV10), 2- and 3-layer-ONIOM, interface openCOSMO-RS, QMMM,   
  Crystal-QMMM, RESP, rigid body optimization, SF, symmetry and pop. for TD-DFT, various functionals, SOLVATOR                                   
                                                                         
[Other institutions]                                                     
  V. Asgeirsson          : NEB                                           
  Christoph Bannwarth    : sTDA-DFT, sTD-DFT, PBEh-3c, B97-3c, D3        
  Giovanni Bistoni       : ETS/NOCV, ADLD/ADEX, COVALED                  
  Martin Brehm           : Molecular dynamics                            
  Ronald Cardenas        : ETS/NOCV                                      
  Martina Colucci        : COVALED                                       
  Sebastian Ehlert       : rSCAN, r2SCAN, r2SCAN-3c, D4, dhf basis sets  
  Marvin Friede          : D4 for Fr, Ra, Ac-Lr                          
  Lars Goerigk           : TD-DFT with DH, B97 family of functionals     
  Stefan Grimme          : VdW corrections, initial TS optimization, DFT functionals, gCP, sTDA/sTD-DF 
  Waldemar Hujo          : DFT-NL                                        
  H. Jonsson             : NEB                                           
  Holger Kruse           : gCP                                           
  Marcel Mueller         : wB97X-3c, vDZP basis set                      
  Hagen Neugebauer       : wr2SCAN, Native XTB                           
  Gianluca Regni         : ADLD/ADEX                                     
  Tobias Risthaus        : pre 6.0 range-separated hybrid DFT and stability analysis
  Lukas Wittmann         : regularized MP2, r2SCAN double-hybrids, wr2SCAN        
                                                                         
We gratefully acknowledge several colleagues who have allowed us to      
interface, adapt or use parts of their codes:                            
  Ed Valeev, F. Pavosevic, A. Kumar             : LibInt (2-el integral package), F12 methods 
  Garnet Chan, S. Sharma, J. Yang, R. Olivares  : DMRG                   
  Ulf Ekstrom                                   : XCFun DFT Library      
  Mihaly Kallay                                 : mrcc  (arbitrary order and MRCC methods)
  Frank Weinhold                                : gennbo (NPA and NBO analysis)           
  Simon Mueller                                 : openCOSMO-RS                            
  Christopher J. Cramer and Donald G. Truhlar   : smd solvation model                     
  S Lehtola, MJT Oliveira, MAL Marques          : LibXC Library                           
  Liviu Ungur et al                             : ANISO software                          


 Your calculation uses the libint2 library for the computation of 2-el integrals
 For citations please refer to: http://libint.valeyev.net

 Your ORCA version has been built with support for libXC version: 7.0.0
 For citations please refer to: https://libxc.gitlab.io

 This ORCA versions uses:
   CBLAS   interface :  Fast vector & matrix operations
   LAPACKE interface :  Fast linear algebra routines
   SCALAPACK package :  Parallel linear algebra routines
   Shared memory     :  Shared parallel matrices
   BLAS/LAPACK       :  OpenBLAS 0.3.29  USE64BITINT DYNAMIC_ARCH NO_AFFINITY SkylakeX SINGLE_THREADED
        Core in use  :  SkylakeX
   Copyright (c) 2011-2014, The OpenBLAS Project


  ***********************************
  * Starting time: Fri Mar 20 14:59:28 2026
  * Host name:     2d0b309e58f3
  * Process ID:    53
  * Working dir.:  /kaggle/working
  ***********************************

NOTE: MaxCore=3000 MB was set to SCF,MP2,MDCI,CIPSI,MRCI,RASCI and CIS
      => If you want to overwrite this, your respective input block should be placed after the MaxCore statement
Your calculation utilizes the atom-pairwise dispersion correction
with the Becke-Johnson damping scheme (D3BJ)


Your calculation utilizes the SMD solvation module
Please cite in your paper:
Marenich, A. V.; Cramer, C. J.; Truhlar, D. G. J. Phys. Chem. B 2009, 113, 6378 

Warning: RI is on but no J-basis has been assigned. Assigning Def2/J (nothing to worry about!)
================================================================================

----- Orbital basis set information -----
Your calculation utilizes the basis: 6-31G(d,p)
   H-He, Li-Ne : W. J. Hehre, R. Ditchfield and J.A. Pople, J. Chem. Phys. 56, 2257 (1972).
                 Note: He and Ne are unpublished basis sets taken from the Gaussian program.
                 Note: Li and B from J. D. Dill and J. A. Pople, J. Chem. Phys. 62, 2921 (1975).
   Na - Ar     : M. M. Francl, W. J. Pietro, W. J. Hehre, J. S. Binkley, M. S. Gordon, 
                 D. J. DeFrees and J. A. Pople, J. Chem. Phys. 77, 3654 (1982).
   K - Zn      : V. A. Rassolov, J. A. Pople, M. A. Ratner, and T. L. Windus, J. Chem. Phys. 109, 1223 (1998).

----- AuxJ basis set information -----
Your calculation utilizes the auxiliary basis: def2/J
   H-Rn: F. Weigend, Phys. Chem. Chem. Phys. 8, 1057 (2006).
   Fr-Lr: K. Eichkorn, F. Weigend, O. Treutler, R. Ahlrichs; Theor. Chem. Acc. 97, 119 (1997).

================================================================================
                                        WARNINGS
                       Please study these warnings very carefully!
================================================================================


WARNING: your system is open-shell and RHF/RKS was chosen
  ===> : WILL SWITCH to UHF/UKS


WARNING: Geometry Optimization
  ===> : Switching off AutoStart
         For restart on a previous wavefunction, please use MOREAD

================================================================================
                                       INPUT FILE
================================================================================
NAME = /kaggle/working/His-1/His_InterFrag.inp
|  1> 
|  2> !RKS B3LYP 6-31G(d,p) TightSCF Opt D3BJ
|  3>  
|  4> %pal nprocs 2 end
|  5> %maxcore 3000
|  6> 
|  7> %cpcm
|  8>   smd true
|  9>   SMDsolvent "WATER"
| 10>   end
| 11> 
| 12> %scf
| 13>   MaxIter 400
| 14>   SOSCF Start 0.00033
| 15>   end
| 16> end
| 17> 
| 18> %output
| 19>   PrintLevel Normal
| 20>   Print[ P_OrbEn ] 2        # print ALL orbital energies (not just up to LUMO+9) :contentReference[oaicite:10]{index=10}
| 21>   XYZFile true              # writes basename.xyz (handy for reuse) :contentReference[oaicite:11]{index=11}
| 22>   end
| 23> 
| 24> *xyz 0 2
| 25> N       -0.040000000     -1.210000000      0.053000000
| 26> C        1.172000000     -1.709000000      0.652000000
| 27> C        1.083000000     -3.207000000      0.905000000
| 28> O        0.040000000     -3.770000000      1.222000000
| 29> C        1.484000000     -0.975000000      1.962000000
| 30> C        2.940000000     -1.060000000      2.353000000
| 31> N        3.380000000     -2.075000000      3.129000000
| 32> C        3.960000000     -0.251000000      2.046000000
| 33> C        4.693000000     -1.908000000      3.317000000
| 34> N        5.058000000     -0.801000000      2.662000000
| 35> O        2.247000000     -3.882000000      0.744000000
| 36> H       -0.102000000     -1.155000000     -0.950000000
| 37> H       -0.715000000     -0.741000000      0.634000000
| 38> H        1.965000000     -1.558000000     -0.089000000
| 39> H        1.215000000      0.087000000      1.879000000
| 40> H        0.859000000     -1.368000000      2.775000000
| 41> H        2.828000000     -2.838000000      3.511000000
| 42> H        4.108000000      0.647000000      1.479000000
| 43> H        5.340000000     -2.550000000      3.892000000
| 44> H        6.002000000     -0.428000000      2.627000000
| 45> H        2.188000000     -4.848000000      0.901000000
| 46> *
| 47> 
| 48>                          ****END OF INPUT****
================================================================================

                       *****************************
                       * Geometry Optimization Run *
                       *****************************

Geometry optimization settings:
Update method            Update   .... BFGS
Choice of coordinates    CoordSys .... (2022) Redundant Internals
Initial Hessian          InHess   .... Almloef's Model
Max. no of cycles        MaxIter  .... 63

Convergence Tolerances:
Energy Change            TolE     ....  5.0000e-06 Eh
Max. Gradient            TolMAXG  ....  3.0000e-04 Eh/bohr
RMS Gradient             TolRMSG  ....  1.0000e-04 Eh/bohr
Max. Displacement        TolMAXD  ....  4.0000e-03 bohr
RMS Displacement         TolRMSD  ....  2.0000e-03 bohr
Strict Convergence                .... False

------------------------------------------------------------------------------
                        ORCA OPTIMIZATION COORDINATE SETUP
------------------------------------------------------------------------------

The optimization will be done in redundant internal coordinates (2022)
Making redundant internal coordinates   ...  (2022 redundants) done
Evaluating the initial hessian          ...  (Almloef) done
Evaluating the coordinates              ...  done
Calculating the B-matrix                .... done
Calculating the G-matrix                .... done
The number of degrees of freedom        ....   98

    -----------------------------------------------------------------
                    Redundant Internal Coordinates


    -----------------------------------------------------------------
         Definition                    Initial Value    Approx d2E/dq
    -----------------------------------------------------------------
      1. B(C   1,N   0)                  1.4411         0.463833   
      2. B(C   2,C   1)                  1.5218         0.384972   
      3. B(O   3,C   2)                  1.2269         1.018769   
      4. B(C   4,C   1)                  1.5337         0.368547   
      5. B(C   5,C   4)                  1.5100         0.402084   
      6. B(N   6,C   5)                  1.3513         0.645097   
      7. B(C   7,C   5)                  1.3376         0.757470   
      8. B(C   8,N   6)                  1.3369         0.680225   
      9. B(N   9,C   8)                  1.3370         0.679761   
     10. B(N   9,C   7)                  1.3739         0.593726   
     11. B(O  10,C   2)                  1.3552         0.636019   
     12. B(H  11,N   0)                  1.0064         0.438439   
     13. B(H  12,N   0)                  1.0066         0.438224   
     14. B(H  13,C   1)                  1.0958         0.352536   
     15. B(H  14,C   4)                  1.0987         0.348801   
     16. B(H  15,C   4)                  1.0982         0.349414   
     17. B(H  16,N   6)                  1.0163         0.422861   
     18. B(H  17,C   7)                  1.0723         0.384313   
     19. B(H  18,C   8)                  1.0777         0.376770   
     20. B(H  19,N   9)                  1.0156         0.423861   
     21. B(H  20,O  10)                  0.9805         0.482322   
     22. A(H  11,N   0,H  12)          120.5627         0.304513   
     23. A(C   1,N   0,H  12)          119.0397         0.342250   
     24. A(C   1,N   0,H  11)          119.0111         0.342279   
     25. A(C   2,C   1,C   4)          109.9372         0.364378   
     26. A(N   0,C   1,C   2)          111.1470         0.376703   
     27. A(C   2,C   1,H  13)          106.8813         0.324789   
     28. A(N   0,C   1,C   4)          111.1252         0.373878   
     29. A(N   0,C   1,H  13)          106.2509         0.332923   
     30. A(C   4,C   1,H  13)          111.3727         0.322474   
     31. A(O   3,C   2,O  10)          122.1624         0.470989   
     32. A(C   1,C   2,O  10)          114.8546         0.398014   
     33. A(C   1,C   2,O   3)          122.9813         0.432786   
     34. A(C   5,C   4,H  15)          109.6897         0.326643   
     35. A(C   1,C   4,H  15)          110.1994         0.322004   
     36. A(C   1,C   4,C   5)          112.9791         0.367102   
     37. A(C   1,C   4,H  14)          110.3817         0.321912   
     38. A(H  14,C   4,H  15)          105.2182         0.288027   
     39. A(C   5,C   4,H  14)          108.0629         0.326548   
     40. A(C   4,C   5,C   7)          129.9283         0.416355   
     41. A(C   4,C   5,N   6)          120.3285         0.402073   
     42. A(N   6,C   5,C   7)          109.7430         0.450326   
     43. A(C   8,N   6,H  16)          125.0574         0.362956   
     44. A(C   5,N   6,H  16)          127.0804         0.359687   
     45. A(C   5,N   6,C   8)          107.8621         0.438735   
     46. A(N   9,C   7,H  17)          117.5185         0.352030   
     47. A(C   5,C   7,H  17)          137.1496         0.369244   
     48. A(C   5,C   7,N   9)          105.3317         0.443603   
     49. A(N   9,C   8,H  18)          126.2075         0.358997   
     50. A(N   6,C   8,H  18)          126.1756         0.359039   
     51. A(N   6,C   8,N   9)          107.6169         0.442902   
     52. A(C   7,N   9,C   8)          109.4462         0.432174   
     53. A(C   8,N   9,H  19)          125.0781         0.363060   
     54. A(C   7,N   9,H  19)          125.4757         0.354793   
     55. A(C   2,O  10,H  20)          114.8374         0.366976   
     56. D(C   4,C   1,N   0,H  12)    -22.2967         0.018371   
     57. D(H  13,C   1,N   0,H  11)     23.0417         0.018371   
     58. D(C   2,C   1,N   0,H  12)    100.4827         0.018371   
     59. D(C   4,C   1,N   0,H  11)    144.3454         0.018371   
     60. D(C   2,C   1,N   0,H  11)    -92.8752         0.018371   
     61. D(O   3,C   2,C   1,N   0)    -34.4615         0.011042   
     62. D(O   3,C   2,C   1,H  13)   -149.9891         0.011042   
     63. D(O  10,C   2,C   1,N   0)    145.0741         0.011042   
     64. D(O  10,C   2,C   1,C   4)    -91.4645         0.011042   
     65. D(O   3,C   2,C   1,C   4)     88.9999         0.011042   
     66. D(H  14,C   4,C   1,N   0)    -37.0848         0.010863   
     67. D(C   5,C   4,C   1,H  13)    -39.9513         0.010863   
     68. D(C   5,C   4,C   1,C   2)     78.3215         0.010863   
     69. D(H  14,C   4,C   1,C   2)   -160.5589         0.010863   
     70. D(C   5,C   4,C   1,N   0)   -158.2044         0.010863   
     71. D(H  14,C   4,C   1,H  13)     81.1683         0.010863   
     72. D(C   7,C   5,C   4,H  14)    -32.5891         0.011993   
     73. D(C   7,C   5,C   4,C   1)     89.8360         0.011993   
     74. D(N   6,C   5,C   4,H  15)     33.3631         0.011993   
     75. D(N   6,C   5,C   4,H  14)    147.5652         0.011993   
     76. D(N   6,C   5,C   4,C   1)    -90.0097         0.011993   
     77. D(H  16,N   6,C   5,C   7)   -179.9583         0.033918   
     78. D(H  16,N   6,C   5,C   4)     -0.0840         0.033918   
     79. D(C   8,N   6,C   5,C   7)      0.0306         0.033918   
     80. D(C   8,N   6,C   5,C   4)    179.9049         0.033918   
     81. D(H  17,C   7,C   5,N   6)    179.8360         0.040997   
     82. D(H  17,C   7,C   5,C   4)     -0.0225         0.040997   
     83. D(N   9,C   7,C   5,N   6)     -0.0056         0.040997   
     84. D(N   9,C   7,C   5,C   4)   -179.8641         0.040997   
     85. D(N   9,C   8,N   6,H  16)    179.9459         0.038076   
     86. D(N   9,C   8,N   6,C   5)     -0.0433         0.038076   
     87. D(H  18,C   8,N   6,H  16)     -0.0194         0.038076   
     88. D(H  18,C   8,N   6,C   5)    179.9914         0.038076   
     89. D(H  19,N   9,C   8,H  18)      0.0494         0.038019   
     90. D(H  19,N   9,C   8,N   6)   -179.9159         0.038019   
     91. D(C   7,N   9,C   8,H  18)   -179.9942         0.038019   
     92. D(C   7,N   9,C   8,N   6)      0.0406         0.038019   
     93. D(H  19,N   9,C   7,H  17)      0.0562         0.028362   
     94. D(H  19,N   9,C   7,C   5)    179.9347         0.028362   
     95. D(C   8,N   9,C   7,H  17)   -179.9001         0.028362   
     96. D(C   8,N   9,C   7,C   5)     -0.0216         0.028362   
     97. D(H  20,O  10,C   2,O   3)     -0.0557         0.029792   
     98. D(H  20,O  10,C   2,C   1)   -179.5955         0.029792   
    -----------------------------------------------------------------

Number of atoms                         .... 21
Number of degrees of freedom            .... 98


         *************************************************************
         *                GEOMETRY OPTIMIZATION CYCLE   1            *
         *************************************************************
---------------------------------
CARTESIAN COORDINATES (ANGSTROEM)
---------------------------------
  N     -0.040000   -1.210000    0.053000
  C      1.172000   -1.709000    0.652000
  C      1.083000   -3.207000    0.905000
  O      0.040000   -3.770000    1.222000
  C      1.484000   -0.975000    1.962000
  C      2.940000   -1.060000    2.353000
  N      3.380000   -2.075000    3.129000
  C      3.960000   -0.251000    2.046000
  C      4.693000   -1.908000    3.317000
  N      5.058000   -0.801000    2.662000
  O      2.247000   -3.882000    0.744000
  H     -0.102000   -1.155000   -0.950000
  H     -0.715000   -0.741000    0.634000
  H      1.965000   -1.558000   -0.089000
  H      1.215000    0.087000    1.879000
  H      0.859000   -1.368000    2.775000
  H      2.828000   -2.838000    3.511000
  H      4.108000    0.647000    1.479000
  H      5.340000   -2.550000    3.892000
  H      6.002000   -0.428000    2.627000
  H      2.188000   -4.848000    0.901000

----------------------------
CARTESIAN COORDINATES (A.U.)
----------------------------
  NO LB      ZA    FRAG     MASS         X           Y           Z
   0 N     7.0000    0    14.007   -0.075589   -2.286569    0.100155
   1 C     6.0000    0    12.011    2.214759   -3.229542    1.232101
   2 C     6.0000    0    12.011    2.046573   -6.060352    1.710202
   3 O     8.0000    0    15.999    0.075589   -7.124268    2.309245
   4 C     6.0000    0    12.011    2.804354   -1.842483    3.707643
   5 C     6.0000    0    12.011    5.555795   -2.003110    4.446526
   6 N     7.0000    0    14.007    6.387274   -3.921182    5.912953
   7 C     6.0000    0    12.011    7.483315   -0.474321    3.866380
   8 C     6.0000    0    12.011    8.868485   -3.605597    6.268222
   9 N     7.0000    0    14.007    9.558235   -1.513671    5.030451
  10 O     8.0000    0    15.999    4.246215   -7.335917    1.405956
  11 H     1.0000    0     1.008   -0.192752   -2.182634   -1.795240
  12 H     1.0000    0     1.008   -1.351154   -1.400287    1.198086
  13 H     1.0000    0     1.008    3.713312   -2.944193   -0.168186
  14 H     1.0000    0     1.008    2.296017    0.164406    3.550795
  15 H     1.0000    0     1.008    1.623275   -2.585145    5.243990
  16 H     1.0000    0     1.008    5.344146   -5.363043    6.634828
  17 H     1.0000    0     1.008    7.762995    1.222653    2.794905
  18 H     1.0000    0     1.008   10.091138   -4.818802    7.354814
  19 H     1.0000    0     1.008   11.342136   -0.808803    4.964311
  20 H     1.0000    0     1.008    4.134721   -9.161392    1.702643

--------------------------------
INTERNAL COORDINATES (ANGSTROEM)
--------------------------------
 N      0   0   0     0.000000000000     0.00000000     0.00000000
 C      1   0   0     1.441091947101     0.00000000     0.00000000
 C      2   1   0     1.521819305962   111.14701485     0.00000000
 O      3   2   1     1.226909532117   122.98125380   325.53854089
 C      2   1   3     1.533688364695   111.12523540   237.22058549
 C      5   2   1     1.509980794580   112.97907035   201.79560441
 N      6   5   2     1.351296044544   120.32853199   269.99030228
 C      6   5   2     1.337583642244   129.92832166    89.83599952
 C      7   6   5     1.336862745386   107.86214424   179.90488236
 N      9   7   6     1.337048615421   107.61690901   359.95667040
 O      3   2   1     1.355153865803   114.85464975   145.07411006
 H      1   2   3     1.006418402058   119.01113503   267.12481537
 H      1   2   3     1.006552035416   119.03971186   100.48270218
 H      2   1   3     1.095778718538   106.25094478   115.91693363
 H      5   2   1     1.098678296864   110.38170245   322.91519911
 H      5   2   1     1.098199890730   110.19940150    78.70511943
 H      7   6   5     1.016266205283   127.08041980   359.91597573
 H      8   6   5     1.072285876061   137.14962291     0.00000000
 H      9   7   6     1.077681771211   126.17555802   179.99141169
 H     10   9   7     1.015622961536   125.07808170   180.08411832
 H     11   3   2     0.980451936609   114.83736454   180.40449461

---------------------------
INTERNAL COORDINATES (A.U.)
---------------------------
 N      0   0   0     0.000000000000     0.00000000     0.00000000
 C      1   0   0     2.723269113821     0.00000000     0.00000000
 C      2   1   0     2.875821713583   111.14701485     0.00000000
 O      3   2   1     2.318523006799   122.98125380   325.53854089
 C      2   1   3     2.898250984055   111.12523540   237.22058549
 C      5   2   1     2.853450169237   112.97907035   201.79560441
 N      6   5   2     2.553579450039   120.32853199   269.99030228
 C      6   5   2     2.527666765055   129.92832166    89.83599952
 C      7   6   5     2.526304467421   107.86214424   179.90488236
 N      9   7   6     2.526655710885   107.61690901   359.95667040
 O      3   2   1     2.560869675692   114.85464975   145.07411006
 H      1   2   3     1.901855156027   119.01113503   267.12481537
 H      1   2   3     1.902107686477   119.03971186   100.48270218
 H      2   1   3     2.070721681415   106.25094478   115.91693363
 H      5   2   1     2.076201090356   110.38170245   322.91519911
 H      5   2   1     2.075297033782   110.19940150    78.70511943
 H      7   6   5     1.920464807144   127.08041980   359.91597573
 H      8   6   5     2.026326643027   137.14962291     0.00000000
 H      9   7   6     2.036523407108   126.17555802   179.99141169
 H     10   9   7     1.919249252626   125.07808170   180.08411832
 H     11   3   2     1.852785647663   114.83736454   180.40449461

---------------------
BASIS SET INFORMATION
---------------------
There are 4 groups of distinct atoms

 Group   1 Type N   : 10s4p1d contracted to 3s2p1d pattern {631/31/1}
 Group   2 Type C   : 10s4p1d contracted to 3s2p1d pattern {631/31/1}
 Group   3 Type O   : 10s4p1d contracted to 3s2p1d pattern {631/31/1}
 Group   4 Type H   : 4s1p contracted to 2s1p pattern {31/1}

Atom   0N    basis set group =>   1
Atom   1C    basis set group =>   2
Atom   2C    basis set group =>   2
Atom   3O    basis set group =>   3
Atom   4C    basis set group =>   2
Atom   5C    basis set group =>   2
Atom   6N    basis set group =>   1
Atom   7C    basis set group =>   2
Atom   8C    basis set group =>   2
Atom   9N    basis set group =>   1
Atom  10O    basis set group =>   3
Atom  11H    basis set group =>   4
Atom  12H    basis set group =>   4
Atom  13H    basis set group =>   4
Atom  14H    basis set group =>   4
Atom  15H    basis set group =>   4
Atom  16H    basis set group =>   4
Atom  17H    basis set group =>   4
Atom  18H    basis set group =>   4
Atom  19H    basis set group =>   4
Atom  20H    basis set group =>   4
---------------------------------
AUXILIARY/J BASIS SET INFORMATION
---------------------------------
There are 4 groups of distinct atoms

 Group   1 Type N   : 12s5p4d2f1g contracted to 6s4p3d1f1g pattern {711111/2111/211/2/1}
 Group   2 Type C   : 12s5p4d2f1g contracted to 6s4p3d1f1g pattern {711111/2111/211/2/1}
 Group   3 Type O   : 12s5p4d2f1g contracted to 6s4p3d1f1g pattern {711111/2111/211/2/1}
 Group   4 Type H   : 5s2p1d contracted to 3s1p1d pattern {311/2/1}

Atom   0N    basis set group =>   1
Atom   1C    basis set group =>   2
Atom   2C    basis set group =>   2
Atom   3O    basis set group =>   3
Atom   4C    basis set group =>   2
Atom   5C    basis set group =>   2
Atom   6N    basis set group =>   1
Atom   7C    basis set group =>   2
Atom   8C    basis set group =>   2
Atom   9N    basis set group =>   1
Atom  10O    basis set group =>   3
Atom  11H    basis set group =>   4
Atom  12H    basis set group =>   4
Atom  13H    basis set group =>   4
Atom  14H    basis set group =>   4
Atom  15H    basis set group =>   4
Atom  16H    basis set group =>   4
Atom  17H    basis set group =>   4
Atom  18H    basis set group =>   4
Atom  19H    basis set group =>   4
Atom  20H    basis set group =>   4


           ************************************************************
           *        Program running with 2 parallel MPI-processes     *
           *              working on a common directory               *
           ************************************************************
------------------------------------------------------------------------------
                             ORCA STARTUP CALCULATIONS
                           -- RI-GTO INTEGRALS CHOSEN --
------------------------------------------------------------------------------
------------------------------------------------------------------------------
                   ___                                                        
                  /   \      - P O W E R E D   B Y -                         
                 /     \                                                     
                 |  |  |   _    _      __       _____    __    __             
                 |  |  |  | |  | |    /  \     |  _  \  |  |  /  |          
                  \  \/   | |  | |   /    \    | | | |  |  | /  /          
                 / \  \   | |__| |  /  /\  \   | |_| |  |  |/  /          
                |  |  |   |  __  | /  /__\  \  |    /   |      \           
                |  |  |   | |  | | |   __   |  |    \   |  |\   \          
                \     /   | |  | | |  |  |  |  | |\  \  |  | \   \       
                 \___/    |_|  |_| |__|  |__|  |_| \__\ |__|  \__/        
                                                                              
                      - O R C A' S   B I G   F R I E N D -                    
                                      &                                       
                       - I N T E G R A L  F E E D E R -                       
                                                                              
 v1 FN, 2020, v2 2021, v3 2022-2024                                           
------------------------------------------------------------------------------


----------------------
SHARK INTEGRAL PACKAGE
----------------------

Number of atoms                             ...     21
Number of basis functions                   ...    204
Number of shells                            ...     96
Maximum angular momentum                    ...      2
Integral batch strategy                     ... SHARK/LIBINT Hybrid
RI-J (if used) integral strategy            ... SPLIT-RIJ (Revised 2003 algorithm where possible)
Printlevel                                  ...      1
Contraction scheme used                     ... SEGMENTED contraction
Prescreening option                         ... SCHWARTZ
   Thresh                                   ... 2.500e-11
   Tcut                                     ... 2.500e-12
   Tpresel                                  ... 2.500e-12 
Coulomb Range Separation                    ... NOT USED
Exchange Range Separation                   ... NOT USED
Multipole approximations                    ... NOT USED
Finite Nucleus Model                        ... NOT USED
CABS basis                                  ... NOT available
Auxiliary Coulomb fitting basis             ... AVAILABLE
   # of basis functions in Aux-J            ...    649
   # of shells in Aux-J                     ...    215
   Maximum angular momentum in Aux-J        ...      4
Auxiliary J/K fitting basis                 ... NOT available
Auxiliary Correlation fitting basis         ... NOT available
Auxiliary 'external' fitting basis          ... NOT available

Checking pre-screening integrals            ... done (  0.0 sec) Dimension = 96
   => SHARK Basis and OBASIS are compatible. Storing Pre-screening
Shell pair information
Shell pair cut-off parameter TPreSel        ...   2.5e-12
Total number of shell pairs                 ...      4656
Shell pairs after pre-screening             ...      4050
Total number of primitive shell pairs       ...     23481
Primitive shell pairs kept                  ...     13095
          la=0 lb=0:   1241 shell pairs
          la=1 lb=0:   1468 shell pairs
          la=1 lb=1:    465 shell pairs
          la=2 lb=0:    505 shell pairs
          la=2 lb=1:    311 shell pairs
          la=2 lb=2:     60 shell pairs

Checking whether 4 symmetric matrices of dimension 204 fit in memory
:Max Core in MB      =   3000.00
 MB in use           =      8.93
 MB left             =   2991.07
 MB needed           =      0.64
 Data fit in memory  = YES
Calculating RI/J V-Matrix + Cholesky decomp.... done (  0.1 sec)
Calculating Nuclear repulsion               ... done (  0.0 sec) ENN=    632.855346973441 Eh

Diagonalization of the overlap matrix:
Smallest eigenvalue                        ... 1.129e-03
Time for diagonalization                   ...    0.006 sec
Threshold for overlap eigenvalues          ... 1.000e-07
Number of eigenvalues below threshold      ... 0
Time for construction of square roots      ...    0.002 sec
Total time needed                          ...    0.008 sec

-------------------
DFT GRID GENERATION
-------------------

General Integration Accuracy     IntAcc      ... 4.388
Radial Grid Type                 RadialGrid  ... OptM3 with GC (2021)
Angular Grid (max. ang.)         AngularGrid ... 4 (Lebedev-302)
Angular grid pruning method      GridPruning ... 4 (adaptive)
Weight generation scheme         WeightScheme... mBecke (2022)
Basis function cutoff            BFCut       ... 1.0000e-11
Integration weight cutoff        WCut        ... 1.0000e-14
Partially contracted basis set               ... off
Rotationally invariant grid construction     ... off
Angular grids for H and He will be reduced by one unit

Total number of grid points                  ...    98282
Total number of batches                      ...     1547
Average number of points per batch           ...       63
Average number of grid points per atom       ...     4680

--------------------
COSX GRID GENERATION
--------------------

GRIDX 1
-------
General Integration Accuracy     IntAcc      ... 3.816
Radial Grid Type                 RadialGrid  ... OptM3 with GC (2021)
Angular Grid (max. ang.)         AngularGrid ... 1 (Lebedev-50)
Angular grid pruning method      GridPruning ... 4 (adaptive)
Weight generation scheme         WeightScheme... mBecke (2022)
Basis function cutoff            BFCut       ... 1.0000e-11
Integration weight cutoff        WCut        ... 1.0000e-14
Partially contracted basis set               ... on
Rotationally invariant grid construction     ... off
Angular grids for H and He will be reduced by one unit

Total number of grid points                  ...    12530
Total number of batches                      ...      111
Average number of points per batch           ...      112
Average number of grid points per atom       ...      597
UseSFitting                                  ... on

GRIDX 2
-------
General Integration Accuracy     IntAcc      ... 4.020
Radial Grid Type                 RadialGrid  ... OptM3 with GC (2021)
Angular Grid (max. ang.)         AngularGrid ... 2 (Lebedev-110)
Angular grid pruning method      GridPruning ... 4 (adaptive)
Weight generation scheme         WeightScheme... mBecke (2022)
Basis function cutoff            BFCut       ... 1.0000e-11
Integration weight cutoff        WCut        ... 1.0000e-14
Partially contracted basis set               ... on
Rotationally invariant grid construction     ... off
Angular grids for H and He will be reduced by one unit

Total number of grid points                  ...    27233
Total number of batches                      ...      225
Average number of points per batch           ...      121
Average number of grid points per atom       ...     1297
UseSFitting                                  ... on

GRIDX 3
-------
General Integration Accuracy     IntAcc      ... 4.338
Radial Grid Type                 RadialGrid  ... OptM3 with GC (2021)
Angular Grid (max. ang.)         AngularGrid ... 3 (Lebedev-194)
Angular grid pruning method      GridPruning ... 4 (adaptive)
Weight generation scheme         WeightScheme... mBecke (2022)
Basis function cutoff            BFCut       ... 1.0000e-11
Integration weight cutoff        WCut        ... 1.0000e-14
Partially contracted basis set               ... on
Rotationally invariant grid construction     ... off
Angular grids for H and He will be reduced by one unit

Total number of grid points                  ...    59722
Total number of batches                      ...      477
Average number of points per batch           ...      125
Average number of grid points per atom       ...     2844
UseSFitting                                  ... on
Grids setup in   2.2 sec
Initializing property integral containers    ... done (  0.0 sec)

SHARK setup successfully completed in   2.5 seconds

Maximum memory used throughout the entire STARTUP-calculation: 33.5 MB


           ************************************************************
           *        Program running with 2 parallel MPI-processes     *
           *              working on a common directory               *
           ************************************************************
-------------------------------------------------------------------------------
                                 ORCA GUESS
                   Start orbitals & Density for SCF / CASSCF
-------------------------------------------------------------------------------

------------
SCF SETTINGS
------------
Hamiltonian:
 Density Functional     Method          .... DFT(GTOs)
 Exchange Functional    Exchange        .... B88
   X-Alpha parameter    XAlpha          ....  0.666667
   Becke's b parameter  XBeta           ....  0.004200
 Correlation Functional Correlation     .... LYP
 LDA part of GGA corr.  LDAOpt          .... VWN-5
 Gradients option       PostSCFGGA      .... off
 Hybrid DFT is turned on
   Fraction HF Exchange ScalHFX         ....  0.200000
   Scaling of DF-GGA-X  ScalDFX         ....  0.720000
   Scaling of DF-GGA-C  ScalDFC         ....  0.810000
   Scaling of DF-LDA-C  ScalLDAC        ....  1.000000
   Perturbative correction              ....  0.000000
   NL short-range parameter             ....  4.800000
 RI-approximation to the Coulomb term is turned on
   Number of AuxJ basis functions       .... 649
   RIJ-COSX (HFX calculated with COS-X)).... on


General Settings:
 Integral files         IntName         .... /kaggle/working/His-1/His_InterFrag
 Hartree-Fock type      HFTyp           .... UHF
 Total Charge           Charge          ....    0
 Multiplicity           Mult            ....    2
 Number of Electrons    NEL             ....   83
 Basis Dimension        Dim             ....  204
 Nuclear Repulsion      ENuc            ....    632.8553469734 Eh

Convergence Acceleration:
 AO-DIIS                CNVDIIS         .... on
   Start iteration      DIISMaxIt       ....    12
   Startup error        DIISStart       ....  0.200000
   # of expansion vecs  DIISMaxEq       ....     5
   Bias factor          DIISBfac        ....   1.050
   Max. coefficient     DIISMaxC        ....  10.000
 MO-DIIS                CNVKDIIS        .... off
 Trust-Rad. Augm. Hess. CNVTRAH         .... auto
   Auto Start mean grad. ratio tolernc. ....  1.125000
   Auto Start start iteration           ....    50
   Auto Start num. interpolation iter.  ....    10
   Max. Number of Micro iterations      ....    24
   Max. Number of Macro iterations      .... Maxiter - #DIIS iter
   Number of Davidson start vectors     ....     2
   Converg. threshold    (grad. norm)   ....   1.000e-05
   Grad. Scal. Fac. for Micro threshold ....   0.100
   Minimum threshold for Micro iter.    ....   1.000e-02
   NR start threshold (gradient norm)   ....   1.000e-04
   Initial trust radius                 ....   0.400
   Minimum AH scaling param. (alpha)    ....   1.000
   Maximum AH scaling param. (alpha)    .... 1000.000
   Quad. conv. algorithm                .... NR
   White noise on init. David. guess    .... on
   Maximum white noise                  ....   0.010
   Pseudo random numbers                .... off
   Inactive MOs                         .... canonical
   Orbital update algorithm             .... Taylor
   Preconditioner                       .... Diag
   Full preconditioner red. dimension   ....   250
 SOSCF                 CNVSOSCF           .... on
   Start iteration     SOSCFMaxIt         ....   150
   Startup grad/error  SOSCFStart         ....  0.000330
   Hessian update      SOSCFHessUp        .... L-BFGS
   Autom. constraints  SOSCFAutoConstrain .... off
 Level Shifting         CNVShift        .... on
   Level shift para.    LevelShift      ....    0.2500
   Turn off err/grad.   ShiftErr        ....    0.0010
 Zerner damping         CNVZerner       .... off
 Static damping         CNVDamp         .... on
   Fraction old density DampFac         ....    0.7000
   Max. Damping (<1)    DampMax         ....    0.9800
   Min. Damping (>=0)   DampMin         ....    0.0000
   Turn off err/grad.   DampErr         ....    0.1000

SCF Procedure:
 Maximum # iterations   MaxIter         ....   400
 SCF integral mode      SCFMode         .... Direct
   Integral package                     .... SHARK and LIBINT hybrid scheme
 Reset frequency        DirectResetFreq ....    20
 Integral Threshold     Thresh          ....  2.500e-11 Eh
 Primitive CutOff       TCut            ....  2.500e-12 Eh

Convergence Tolerance:
 Convergence Check Mode ConvCheckMode   .... Total+1el-Energy
 Convergence forced     ConvForced      .... 0
 Energy Change          TolE            ....  1.000e-08 Eh
 1-El. energy change                    ....  1.000e-05 Eh
 Orbital Gradient       TolG            ....  1.000e-05
 Orbital Rotation angle TolX            ....  1.000e-05
 DIIS Error             TolErr          ....  5.000e-07

------------------------------
INITIAL GUESS: MODEL POTENTIAL
------------------------------
Loading Hartree-Fock densities                     ... done
Calculating cut-offs                               ... done
Initializing the effective Hamiltonian             ... done
Setting up the integral package (SHARK)            ... done
Starting the Coulomb interaction                   ... done (   0.2 sec)
Making the grid                                    ... done (   0.3 sec)
Mapping shells                                     ... done
Starting the XC term evaluation                    ... done (   0.2 sec)
  promolecular density results
     # of electrons  =     82.997745493
     EX              =    -70.050697415
     EC              =     -2.853650423
     EX+EC           =    -72.904347838
Transforming the Hamiltonian                       ... done (   0.0 sec)
Diagonalizing the Hamiltonian                      ... done (   0.0 sec)
Back transforming the eigenvectors                 ... done (   0.0 sec)
Now organizing SCF variables                       ... done
                      ------------------
                      INITIAL GUESS DONE (   0.6 sec)
                      ------------------
             **** ENERGY FILE WAS UPDATED (/kaggle/working/His-1/His_InterFrag.en.tmp) ****
Finished Guess after   1.0 sec
Maximum memory used throughout the entire GUESS-calculation: 13.1 MB


           ************************************************************
           *        Program running with 2 parallel MPI-processes     *
           *              working on a common directory               *
           ************************************************************

-------------------------------------------------------------------------------------------
                                      ORCA LEAN-SCF
                              memory conserving SCF solver
-------------------------------------------------------------------------------------------

--------------------
CPCM SOLVATION MODEL
--------------------
CPCM parameters:
  Epsilon                                         ...      78.3550
  Refrac                                          ...       1.3328
  Rsolv                                           ...       1.3000
  Surface type                                    ... GAUSSIAN VDW
  Discretization scheme                           ... Constant charge density
    Threshold for H atoms                         ...       5.0000 (charges/Ang^2)
    Threshold for non-H atoms                     ...       5.0000 (charges/Ang^2)
  Epsilon function type                           ...         CPCM
Solvent:                                          ... WATER
SMD-CDS solvent descriptors:
  Soln                                            ...       1.3328
  Soln25                                          ...       1.3323
  Sola                                            ...       0.0000
  Solb                                            ...       0.0000
  Solg                                            ...       0.0000
  Solc                                            ...       0.0000
  Solh                                            ...       0.0000
Radii:
  Scheme                                          ... Element-dependent radii
  Radius for N  used is    3.5716 Bohr (=   1.8900 Ang.)
  Radius for C  used is    3.4960 Bohr (=   1.8500 Ang.)
  Radius for O  used is    2.8724 Bohr (=   1.5200 Ang.)
  Radius for H  used is    2.2677 Bohr (=   1.2000 Ang.)
Calculating surface                               ...        done! (  0.0s)
Cavity surface points                             ...         1600
Cavity Volume                                     ...    1054.2403
Cavity Surface-area                               ...     655.4385
Calculating surface distance matrix               ...        done! (  0.0s)
Performing Cholesky decomposition & store         ...        done! (  0.1s)
Overall time for CPCM initialization              ...                 0.2s

----------------------------------------D-I-I-S--------------------------------------------
Iteration    Energy (Eh)           Delta-E    RMSDP     MaxDP     DIISErr   Damp  Time(sec)
-------------------------------------------------------------------------------------------
               ***  Starting incremental Fock matrix formation  ***
    1    -548.6035741596341495     0.00e+00  2.22e-03  4.88e-02  1.47e-01  0.700   6.4
Warning: op=0 Small HOMO/LUMO gap (   0.032) - skipping pre-diagonalization
         Will do a full diagonalization
    2    -548.7747513982025112    -1.71e-01  1.47e-03  2.89e-02  6.38e-02  0.700   3.5
                               ***Turning on AO-DIIS***
    3    -548.8421962845501412    -6.74e-02  5.94e-04  1.25e-02  2.02e-02  0.700   3.3
    4    -548.8821575949615408    -4.00e-02  1.05e-03  2.62e-02  1.12e-02  0.000   3.1
    5    -548.9701072929975680    -8.79e-02  2.64e-04  4.80e-03  4.08e-03  0.000   3.2
    6    -548.9707847226587774    -6.77e-04  2.00e-04  4.83e-03  1.83e-03  0.000   2.9
    7    -548.9710283917071365    -2.44e-04  1.78e-04  3.82e-03  1.40e-03  0.000   2.9
    8    -548.9712255438222428    -1.97e-04  1.82e-04  3.87e-03  1.32e-03  0.000   2.9
    9    -548.9714078993951034    -1.82e-04  1.73e-04  4.07e-03  1.44e-03  0.000   2.9
   10    -548.9715658464361923    -1.58e-04  1.68e-04  3.70e-03  1.19e-03  0.000   2.9
   11    -548.9717065478399718    -1.41e-04  1.55e-04  3.26e-03  1.19e-03  0.000   2.9
   12    -548.9718269315259249    -1.20e-04  1.66e-04  3.69e-03  1.08e-03  0.000   2.9
   13    -548.9719310369727054    -1.04e-04  1.22e-04  2.66e-03  1.23e-03  0.000   2.8
   14    -548.9720215422574938    -9.05e-05  1.76e-04  3.81e-03  8.67e-04  0.000   2.8
               *** Restarting incremental Fock matrix formation ***
                             ****Resetting DIIS****
Warning: op=0 Small HOMO/LUMO gap (   0.040) - skipping pre-diagonalization
         Will do a full diagonalization
   15    -548.9720735663803453    -5.20e-05  6.39e-04  1.38e-02  1.38e-03  0.000   5.9
   16    -548.9720792181200295    -5.65e-06  1.11e-04  3.07e-03  2.91e-03  0.000   3.0
   17    -548.9723286059651173    -2.49e-04  7.66e-05  1.57e-03  1.76e-03  0.000   2.8
   18    -548.9723865604288449    -5.80e-05  6.90e-05  1.32e-03  1.43e-03  0.000   2.7
   19    -548.9724211885608156    -3.46e-05  6.47e-05  1.25e-03  1.28e-03  0.000   2.7
   20    -548.9724491379373603    -2.79e-05  1.92e-04  3.74e-03  1.16e-03  0.000   2.7
   21    -548.9725323515011723    -8.32e-05  8.94e-05  2.08e-03  3.52e-04  0.000   2.9
   22    -548.9725473353129246    -1.50e-05  7.56e-05  1.72e-03  3.88e-04  0.000   4.2
                              *** Initializing SOSCF ***
---------------------------------------S-O-S-C-F--------------------------------------
Iteration    Energy (Eh)           Delta-E    RMSDP     MaxDP     MaxGrad    Time(sec)
--------------------------------------------------------------------------------------
   23    -548.9725598601254433    -1.25e-05  9.23e-05  1.93e-03  2.89e-04     4.2
               *** Restarting incremental Fock matrix formation ***
   24    -548.9725758323942273    -1.60e-05  5.29e-05  1.22e-03  5.37e-04     5.9
   25    -548.9725814059787581    -5.57e-06  3.68e-04  8.50e-03  4.04e-04     4.1
   26    -548.9725971501128470    -1.57e-05  3.53e-05  7.46e-04  3.24e-04     4.6
   27    -548.9725985132632786    -1.36e-06  1.25e-05  2.33e-04  1.24e-04     4.0
   28    -548.9725986657521162    -1.52e-07  6.35e-06  1.24e-04  3.86e-05     3.7
   29    -548.9725987397372364    -7.40e-08  1.51e-06  3.16e-05  1.56e-05     3.4
   30    -548.9725987479413334    -8.20e-09  1.09e-06  1.92e-05  1.17e-05     2.9
                 **** Energy Check signals convergence ****

               *****************************************************
               *                     SUCCESS                       *
               *           SCF CONVERGED AFTER  30 CYCLES          *
               *****************************************************

Recomputing exchange energy using gridx3       ... done (    8.356 sec)
Old exchange energy                            :    -14.237768058 Eh
New exchange energy                            :    -14.237787478 Eh
Exchange energy change after final integration :     -0.000019420 Eh
Total energy after final integration           :   -548.972618174 Eh

SMD CDS free energy correction energy :                 6.04546     Kcal/mol
Total Energy after SMD CDS correction =              -548.962984120 Eh
             **** ENERGY FILE WAS UPDATED (/kaggle/working/His-1/His_InterFrag.en.tmp) ****

----------------
TOTAL SCF ENERGY
----------------

Total Energy       :       -548.96298411996304 Eh          -14938.04223 eV

Components:
Nuclear Repulsion  :        632.85534697344053 Eh           17220.86948 eV
Electronic Energy  :      -1181.78820596601599 Eh          -32158.09197 eV
One Electron Energy:      -2004.21694687318222 Eh          -54537.51576 eV
Two Electron Energy:        822.42874090716623 Eh           22379.42379 eV
CPCM Dielectric    :         -0.03973976140508 Eh              -1.08137 eV
SMD CDS (Gcds)     :          0.00963405399291 Eh               0.26216 eV

Virial components:
Potential Energy   :      -1095.05406249444036 Eh          -29797.93594 eV
Kinetic Energy     :        546.09107837447732 Eh           14859.89370 eV
Virial Ratio       :          2.00525902337397

DFT components:
N(Alpha)           :       41.999963782484 electrons
N(Beta)            :       40.999969603843 electrons
N(Total)           :       82.999933386328 electrons
E(X)               :      -56.579937595633 Eh       
E(C)               :       -3.363905728875 Eh       
E(XC)              :      -59.943843324508 Eh       

CPCM Solvation Model Properties:
Surface-charge          :         -0.03011647475957
Corrected charge        :         -0.00000000000000
Outlying charge corr.   :          0.00006523355051 Eh               0.00178 eV
Free-energy (cav+disp)  :          0.00963405399291 Eh               0.26216 eV

---------------
SCF CONVERGENCE
---------------

  Last Energy change         ...    8.2041e-09  Tolerance :   1.0000e-08
  Last MAX-Density change    ...    1.9150e-05  Tolerance :   1.0000e-07
  Last RMS-Density change    ...    1.0920e-06  Tolerance :   5.0000e-09
  Last DIIS Error            ...    2.8891e-04  Tolerance :   5.0000e-07
  Last Orbital Gradient      ...    1.1734e-05  Tolerance :   1.0000e-05
  Last Orbital Rotation      ...    8.8707e-05  Tolerance :   1.0000e-05


----------------------
UHF SPIN CONTAMINATION
----------------------

Warning: in a DFT calculation there is little theoretical justification to 
         calculate <S**2> as in Hartree-Fock theory. We will do it anyways
         but you should keep in mind that the values have only limited relevance

Expectation value of <S**2>     :     0.755072
Ideal value S*(S+1) for S=0.5   :     0.750000
Deviation                       :     0.005072

----------------
ORBITAL ENERGIES
----------------
                 SPIN UP ORBITALS
  NO   OCC          E(Eh)            E(eV) 
   0   1.0000     -19.178620      -521.8768 
   1   1.0000     -19.124402      -520.4014 
   2   1.0000     -14.332036      -389.9945 
   3   1.0000     -14.327575      -389.8731 
   4   1.0000     -14.290128      -388.8541 
   5   1.0000     -10.300962      -280.3034 
   6   1.0000     -10.214106      -277.9400 
   7   1.0000     -10.189707      -277.2760 
   8   1.0000     -10.180692      -277.0307 
   9   1.0000     -10.178491      -276.9708 
  10   1.0000     -10.169215      -276.7184 
  11   1.0000      -1.083848       -29.4930 
  12   1.0000      -1.005293       -27.3554 
  13   1.0000      -0.997227       -27.1359 
  14   1.0000      -0.877027       -23.8651 
  15   1.0000      -0.868897       -23.6439 
  16   1.0000      -0.767075       -20.8732 
  17   1.0000      -0.713964       -19.4280 
  18   1.0000      -0.661789       -18.0082 
  19   1.0000      -0.624547       -16.9948 
  20   1.0000      -0.588281       -16.0079 
  21   1.0000      -0.570389       -15.5211 
  22   1.0000      -0.529114       -14.3979 
  23   1.0000      -0.496660       -13.5148 
  24   1.0000      -0.477418       -12.9912 
  25   1.0000      -0.470117       -12.7925 
  26   1.0000      -0.460201       -12.5227 
  27   1.0000      -0.451440       -12.2843 
  28   1.0000      -0.431309       -11.7365 
  29   1.0000      -0.421646       -11.4736 
  30   1.0000      -0.417277       -11.3547 
  31   1.0000      -0.404274       -11.0009 
  32   1.0000      -0.386533       -10.5181 
  33   1.0000      -0.367560       -10.0018 
  34   1.0000      -0.359871        -9.7926 
  35   1.0000      -0.348935        -9.4950 
  36   1.0000      -0.311036        -8.4637 
  37   1.0000      -0.290340        -7.9005 
  38   1.0000      -0.268076        -7.2947 
  39   1.0000      -0.225638        -6.1399 
  40   1.0000      -0.205945        -5.6040 
  41   1.0000      -0.027312        -0.7432 
  42   0.0000       0.009919         0.2699 
  43   0.0000       0.066835         1.8187 
  44   0.0000       0.095173         2.5898 
  45   0.0000       0.105848         2.8803 
  46   0.0000       0.111640         3.0379 
  47   0.0000       0.134064         3.6481 
  48   0.0000       0.154599         4.2069 
  49   0.0000       0.163106         4.4383 
  50   0.0000       0.166910         4.5418 
  51   0.0000       0.176996         4.8163 
  52   0.0000       0.185996         5.0612 
  53   0.0000       0.204248         5.5579 
  54   0.0000       0.221391         6.0244 
  55   0.0000       0.247822         6.7436 
  56   0.0000       0.259514         7.0617 
  57   0.0000       0.276476         7.5233 
  58   0.0000       0.297160         8.0861 
  59   0.0000       0.299905         8.1608 
  60   0.0000       0.341750         9.2995 
  61   0.0000       0.347565         9.4577 
  62   0.0000       0.384729        10.4690 
  63   0.0000       0.396198        10.7811 
  64   0.0000       0.463511        12.6128 
  65   0.0000       0.519181        14.1276 
  66   0.0000       0.527367        14.3504 
  67   0.0000       0.536022        14.5859 
  68   0.0000       0.554005        15.0752 
  69   0.0000       0.576627        15.6908 
  70   0.0000       0.589731        16.0474 
  71   0.0000       0.598097        16.2750 
  72   0.0000       0.613740        16.7007 
  73   0.0000       0.635920        17.3043 
  74   0.0000       0.637178        17.3385 
  75   0.0000       0.646494        17.5920 
  76   0.0000       0.652220        17.7478 
  77   0.0000       0.659601        17.9487 
  78   0.0000       0.672506        18.2998 
  79   0.0000       0.707794        19.2601 
  80   0.0000       0.724044        19.7022 
  81   0.0000       0.739708        20.1285 
  82   0.0000       0.765186        20.8218 
  83   0.0000       0.786185        21.3932 
  84   0.0000       0.801915        21.8212 
  85   0.0000       0.803708        21.8700 
  86   0.0000       0.826421        22.4881 
  87   0.0000       0.830006        22.5856 
  88   0.0000       0.838504        22.8168 
  89   0.0000       0.842972        22.9384 
  90   0.0000       0.861195        23.4343 
  91   0.0000       0.867952        23.6182 
  92   0.0000       0.885620        24.0989 
  93   0.0000       0.895979        24.3808 
  94   0.0000       0.902995        24.5717 
  95   0.0000       0.916790        24.9471 
  96   0.0000       0.926064        25.1995 
  97   0.0000       0.937339        25.5063 
  98   0.0000       0.961507        26.1639 
  99   0.0000       0.978259        26.6198 
 100   0.0000       0.990075        26.9413 
 101   0.0000       1.005025        27.3481 
 102   0.0000       1.029147        28.0045 
 103   0.0000       1.065645        28.9977 
 104   0.0000       1.084249        29.5039 
 105   0.0000       1.113598        30.3025 
 106   0.0000       1.170866        31.8609 
 107   0.0000       1.212554        32.9953 
 108   0.0000       1.240590        33.7582 
 109   0.0000       1.268390        34.5146 
 110   0.0000       1.299153        35.3518 
 111   0.0000       1.317379        35.8477 
 112   0.0000       1.335782        36.3485 
 113   0.0000       1.358296        36.9611 
 114   0.0000       1.365597        37.1598 
 115   0.0000       1.371795        37.3284 
 116   0.0000       1.412215        38.4283 
 117   0.0000       1.431004        38.9396 
 118   0.0000       1.450246        39.4632 
 119   0.0000       1.451597        39.5000 
 120   0.0000       1.468745        39.9666 
 121   0.0000       1.519201        41.3396 
 122   0.0000       1.571644        42.7666 
 123   0.0000       1.607280        43.7363 
 124   0.0000       1.614514        43.9332 
 125   0.0000       1.654763        45.0284 
 126   0.0000       1.689723        45.9797 
 127   0.0000       1.706953        46.4485 
 128   0.0000       1.738621        47.3103 
 129   0.0000       1.759377        47.8751 
 130   0.0000       1.779049        48.4104 
 131   0.0000       1.827548        49.7301 
 132   0.0000       1.833076        49.8805 
 133   0.0000       1.866139        50.7802 
 134   0.0000       1.899449        51.6866 
 135   0.0000       1.905054        51.8391 
 136   0.0000       1.938447        52.7478 
 137   0.0000       1.953678        53.1623 
 138   0.0000       1.960399        53.3452 
 139   0.0000       1.987385        54.0795 
 140   0.0000       2.007543        54.6280 
 141   0.0000       2.023285        55.0564 
 142   0.0000       2.027436        55.1693 
 143   0.0000       2.061518        56.0968 
 144   0.0000       2.074546        56.4513 
 145   0.0000       2.096343        57.0444 
 146   0.0000       2.107342        57.3437 
 147   0.0000       2.139901        58.2297 
 148   0.0000       2.166354        58.9495 
 149   0.0000       2.183516        59.4165 
 150   0.0000       2.189603        59.5821 
 151   0.0000       2.211894        60.1887 
 152   0.0000       2.223394        60.5016 
 153   0.0000       2.226585        60.5885 
 154   0.0000       2.262162        61.5566 
 155   0.0000       2.289891        62.3111 
 156   0.0000       2.314603        62.9835 
 157   0.0000       2.332774        63.4780 
 158   0.0000       2.364189        64.3329 
 159   0.0000       2.398511        65.2668 
 160   0.0000       2.424025        65.9611 
 161   0.0000       2.439951        66.3945 
 162   0.0000       2.451356        66.7048 
 163   0.0000       2.477791        67.4241 
 164   0.0000       2.494776        67.8863 
 165   0.0000       2.497262        67.9539 
 166   0.0000       2.516755        68.4844 
 167   0.0000       2.529138        68.8213 
 168   0.0000       2.540274        69.1244 
 169   0.0000       2.566841        69.8473 
 170   0.0000       2.576534        70.1110 
 171   0.0000       2.613411        71.1145 
 172   0.0000       2.630517        71.5800 
 173   0.0000       2.634903        71.6993 
 174   0.0000       2.652069        72.1665 
 175   0.0000       2.677080        72.8470 
 176   0.0000       2.707641        73.6787 
 177   0.0000       2.718765        73.9814 
 178   0.0000       2.744189        74.6732 
 179   0.0000       2.768247        75.3278 
 180   0.0000       2.799701        76.1837 
 181   0.0000       2.831485        77.0486 
 182   0.0000       2.856737        77.7358 
 183   0.0000       2.868865        78.0658 
 184   0.0000       2.887683        78.5778 
 185   0.0000       2.903844        79.0176 
 186   0.0000       2.906567        79.0917 
 187   0.0000       2.950785        80.2949 
 188   0.0000       2.993813        81.4658 
 189   0.0000       3.027632        82.3860 
 190   0.0000       3.061600        83.3104 
 191   0.0000       3.091882        84.1344 
 192   0.0000       3.184767        86.6619 
 193   0.0000       3.260440        88.7211 
 194   0.0000       3.295220        89.6675 
 195   0.0000       3.316266        90.2402 
 196   0.0000       3.383989        92.0830 
 197   0.0000       3.415090        92.9293 
 198   0.0000       3.461727        94.1984 
 199   0.0000       3.489077        94.9426 
 200   0.0000       3.521075        95.8133 
 201   0.0000       3.557214        96.7967 
 202   0.0000       3.817542       103.8806 
 203   0.0000       3.955774       107.6421 

                 SPIN DOWN ORBITALS
  NO   OCC          E(Eh)            E(eV) 
   0   1.0000     -19.178328      -521.8688 
   1   1.0000     -19.124059      -520.3921 
   2   1.0000     -14.327712      -389.8769 
   3   1.0000     -14.322613      -389.7381 
   4   1.0000     -14.290109      -388.8536 
   5   1.0000     -10.300297      -280.2853 
   6   1.0000     -10.214143      -277.9410 
   7   1.0000     -10.189955      -277.2828 
   8   1.0000     -10.180650      -277.0296 
   9   1.0000     -10.178528      -276.9718 
  10   1.0000     -10.160034      -276.4686 
  11   1.0000      -1.083087       -29.4723 
  12   1.0000      -0.997018       -27.1302 
  13   1.0000      -0.996411       -27.1137 
  14   1.0000      -0.873181       -23.7605 
  15   1.0000      -0.862869       -23.4799 
  16   1.0000      -0.764261       -20.7966 
  17   1.0000      -0.710346       -19.3295 
  18   1.0000      -0.660247       -17.9662 
  19   1.0000      -0.613690       -16.6993 
  20   1.0000      -0.587443       -15.9851 
  21   1.0000      -0.566942       -15.4273 
  22   1.0000      -0.525429       -14.2977 
  23   1.0000      -0.494672       -13.4607 
  24   1.0000      -0.476611       -12.9693 
  25   1.0000      -0.469238       -12.7686 
  26   1.0000      -0.456784       -12.4297 
  27   1.0000      -0.448149       -12.1947 
  28   1.0000      -0.428321       -11.6552 
  29   1.0000      -0.418073       -11.3763 
  30   1.0000      -0.400275       -10.8920 
  31   1.0000      -0.399682       -10.8759 
  32   1.0000      -0.385018       -10.4769 
  33   1.0000      -0.366363        -9.9692 
  34   1.0000      -0.357348        -9.7239 
  35   1.0000      -0.348031        -9.4704 
  36   1.0000      -0.308281        -8.3887 
  37   1.0000      -0.268109        -7.2956 
  38   1.0000      -0.263107        -7.1595 
  39   1.0000      -0.213786        -5.8174 
  40   1.0000      -0.194239        -5.2855 
  41   0.0000       0.015262         0.4153 
  42   0.0000       0.071263         1.9392 
  43   0.0000       0.082252         2.2382 
  44   0.0000       0.096546         2.6272 
  45   0.0000       0.106316         2.8930 
  46   0.0000       0.112852         3.0709 
  47   0.0000       0.135805         3.6955 
  48   0.0000       0.155352         4.2273 
  49   0.0000       0.164757         4.4833 
  50   0.0000       0.167978         4.5709 
  51   0.0000       0.185608         5.0506 
  52   0.0000       0.186935         5.0867 
  53   0.0000       0.204717         5.5706 
  54   0.0000       0.222357         6.0506 
  55   0.0000       0.251481         6.8431 
  56   0.0000       0.261719         7.1217 
  57   0.0000       0.278706         7.5840 
  58   0.0000       0.297740         8.1019 
  59   0.0000       0.303545         8.2599 
  60   0.0000       0.342984         9.3331 
  61   0.0000       0.355919         9.6851 
  62   0.0000       0.385466        10.4891 
  63   0.0000       0.397538        10.8176 
  64   0.0000       0.465835        12.6760 
  65   0.0000       0.521312        14.1856 
  66   0.0000       0.531753        14.4697 
  67   0.0000       0.538973        14.6662 
  68   0.0000       0.562588        15.3088 
  69   0.0000       0.586022        15.9465 
  70   0.0000       0.599118        16.3028 
  71   0.0000       0.612225        16.6595 
  72   0.0000       0.617123        16.7928 
  73   0.0000       0.639955        17.4141 
  74   0.0000       0.642742        17.4899 
  75   0.0000       0.648575        17.6486 
  76   0.0000       0.653721        17.7886 
  77   0.0000       0.666054        18.1243 
  78   0.0000       0.674298        18.3486 
  79   0.0000       0.711226        19.3534 
  80   0.0000       0.724840        19.7239 
  81   0.0000       0.743886        20.2422 
  82   0.0000       0.767072        20.8731 
  83   0.0000       0.798861        21.7381 
  84   0.0000       0.802656        21.8414 
  85   0.0000       0.808817        22.0090 
  86   0.0000       0.827696        22.5228 
  87   0.0000       0.832510        22.6537 
  88   0.0000       0.843670        22.9574 
  89   0.0000       0.845977        23.0202 
  90   0.0000       0.861615        23.4457 
  91   0.0000       0.870339        23.6831 
  92   0.0000       0.888453        24.1760 
  93   0.0000       0.897340        24.4179 
  94   0.0000       0.904735        24.6191 
  95   0.0000       0.918769        25.0010 
  96   0.0000       0.931323        25.3426 
  97   0.0000       0.939121        25.5548 
  98   0.0000       0.963299        26.2127 
  99   0.0000       0.979284        26.6477 
 100   0.0000       0.992780        27.0149 
 101   0.0000       1.007795        27.4235 
 102   0.0000       1.031504        28.0686 
 103   0.0000       1.067008        29.0348 
 104   0.0000       1.084806        29.5191 
 105   0.0000       1.115023        30.3413 
 106   0.0000       1.171562        31.8798 
 107   0.0000       1.214677        33.0530 
 108   0.0000       1.245009        33.8784 
 109   0.0000       1.273568        34.6556 
 110   0.0000       1.300544        35.3896 
 111   0.0000       1.325317        36.0637 
 112   0.0000       1.339747        36.4564 
 113   0.0000       1.362722        37.0816 
 114   0.0000       1.368163        37.2296 
 115   0.0000       1.381389        37.5895 
 116   0.0000       1.427976        38.8572 
 117   0.0000       1.433357        39.0036 
 118   0.0000       1.453857        39.5615 
 119   0.0000       1.463609        39.8268 
 120   0.0000       1.470590        40.0168 
 121   0.0000       1.520591        41.3774 
 122   0.0000       1.572375        42.7865 
 123   0.0000       1.608637        43.7732 
 124   0.0000       1.615210        43.9521 
 125   0.0000       1.656035        45.0630 
 126   0.0000       1.691416        46.0258 
 127   0.0000       1.707946        46.4756 
 128   0.0000       1.740302        47.3560 
 129   0.0000       1.761277        47.9268 
 130   0.0000       1.783937        48.5434 
 131   0.0000       1.828808        49.7644 
 132   0.0000       1.834781        49.9269 
 133   0.0000       1.867809        50.8257 
 134   0.0000       1.902951        51.7819 
 135   0.0000       1.906555        51.8800 
 136   0.0000       1.940271        52.7975 
 137   0.0000       1.954313        53.1796 
 138   0.0000       1.961836        53.3843 
 139   0.0000       1.989159        54.1278 
 140   0.0000       2.009261        54.6748 
 141   0.0000       2.025558        55.1182 
 142   0.0000       2.029980        55.2386 
 143   0.0000       2.067312        56.2544 
 144   0.0000       2.079526        56.5868 
 145   0.0000       2.099221        57.1227 
 146   0.0000       2.109397        57.3996 
 147   0.0000       2.141530        58.2740 
 148   0.0000       2.168195        58.9996 
 149   0.0000       2.185875        59.4807 
 150   0.0000       2.192867        59.6709 
 151   0.0000       2.221314        60.4450 
 152   0.0000       2.235800        60.8392 
 153   0.0000       2.240603        60.9699 
 154   0.0000       2.263713        61.5988 
 155   0.0000       2.291825        62.3637 
 156   0.0000       2.315766        63.0152 
 157   0.0000       2.334937        63.5369 
 158   0.0000       2.365659        64.3729 
 159   0.0000       2.401248        65.3413 
 160   0.0000       2.431543        66.1657 
 161   0.0000       2.442191        66.4554 
 162   0.0000       2.453322        66.7583 
 163   0.0000       2.481551        67.5264 
 164   0.0000       2.499868        68.0249 
 165   0.0000       2.503552        68.1251 
 166   0.0000       2.520390        68.5833 
 167   0.0000       2.537668        69.0534 
 168   0.0000       2.542429        69.1830 
 169   0.0000       2.569922        69.9311 
 170   0.0000       2.578499        70.1645 
 171   0.0000       2.614988        71.1574 
 172   0.0000       2.634688        71.6935 
 173   0.0000       2.645123        71.9775 
 174   0.0000       2.653919        72.2168 
 175   0.0000       2.677978        72.8715 
 176   0.0000       2.708766        73.7093 
 177   0.0000       2.719546        74.0026 
 178   0.0000       2.745581        74.7111 
 179   0.0000       2.769826        75.3708 
 180   0.0000       2.802030        76.2471 
 181   0.0000       2.847094        77.4734 
 182   0.0000       2.857974        77.7694 
 183   0.0000       2.869721        78.0891 
 184   0.0000       2.888775        78.6076 
 185   0.0000       2.906961        79.1024 
 186   0.0000       2.907495        79.1170 
 187   0.0000       2.953114        80.3583 
 188   0.0000       2.993987        81.4705 
 189   0.0000       3.028800        82.4178 
 190   0.0000       3.063039        83.3495 
 191   0.0000       3.093598        84.1811 
 192   0.0000       3.185051        86.6696 
 193   0.0000       3.261469        88.7491 
 194   0.0000       3.297376        89.7262 
 195   0.0000       3.316452        90.2452 
 196   0.0000       3.384197        92.0887 
 197   0.0000       3.415704        92.9460 
 198   0.0000       3.461858        94.2019 
 199   0.0000       3.489180        94.9454 
 200   0.0000       3.521147        95.8153 
 201   0.0000       3.557357        96.8006 
 202   0.0000       3.818497       103.9066 
 203   0.0000       3.960585       107.7730 

                    ********************************
                    * MULLIKEN POPULATION ANALYSIS *
                    ********************************

--------------------------------------------
MULLIKEN ATOMIC CHARGES AND SPIN POPULATIONS
--------------------------------------------
   0 N :   -0.655656    0.000286
   1 C :    0.043422   -0.002507
   2 C :    0.543641    0.040912
   3 O :   -0.538758    0.010359
   4 C :   -0.254729    0.005108
   5 C :    0.220871   -0.006927
   6 N :   -0.485944    0.150458
   7 C :   -0.044301    0.007574
   8 C :    0.037905    0.671622
   9 N :   -0.477613    0.173921
  10 O :   -0.514750    0.005309
  11 H :    0.279139    0.000024
  12 H :    0.273941    0.000286
  13 H :    0.122726    0.000683
  14 H :    0.128481    0.000261
  15 H :    0.126763    0.002114
  16 H :    0.297879   -0.009399
  17 H :    0.131292   -0.001060
  18 H :    0.103810   -0.038336
  19 H :    0.293461   -0.010426
  20 H :    0.368418   -0.000265
Sum of atomic charges         :   -0.0000000
Sum of atomic spin populations:    1.0000000

-----------------------------------------------------
MULLIKEN REDUCED ORBITAL CHARGES AND SPIN POPULATIONS
-----------------------------------------------------
CHARGE
  0 N s       :     3.496220  s :     3.496220
      pz      :     1.154750  p :     4.139389
      px      :     1.266621
      py      :     1.718018
      dz2     :     0.006053  d :     0.020046
      dxz     :     0.005477
      dyz     :     0.002024
      dx2y2   :     0.003082
      dxy     :     0.003411

  1 C s       :     3.169715  s :     3.169715
      pz      :     0.948302  p :     2.726518
      px      :     0.893303
      py      :     0.884912
      dz2     :     0.009085  d :     0.060345
      dxz     :     0.013992
      dyz     :     0.009301
      dx2y2   :     0.018778
      dxy     :     0.009189

  2 C s       :     2.998181  s :     2.998181
      pz      :     0.767363  p :     2.339983
      px      :     0.695210
      py      :     0.877409
      dz2     :     0.009114  d :     0.118195
      dxz     :     0.022695
      dyz     :     0.010480
      dx2y2   :     0.038914
      dxy     :     0.036992

  3 O s       :     3.841026  s :     3.841026
      pz      :     1.472123  p :     4.672741
      px      :     1.487736
      py      :     1.712882
      dz2     :     0.003131  d :     0.024992
      dxz     :     0.006900
      dyz     :     0.002177
      dx2y2   :     0.006054
      dxy     :     0.006729

  4 C s       :     3.235109  s :     3.235109
      pz      :     0.970687  p :     2.982033
      px      :     0.970798
      py      :     1.040548
[...]
10 O  dyz             0.2       3.7       0.2       0.9       0.0       0.0
10 O  dx2y2           0.8      10.5       0.1       1.9       0.0       0.0
10 O  dxy             0.1       0.4       0.2       0.0       0.0       0.0
11 H  s               0.9       0.4       7.1       0.0       0.0       0.0
11 H  pz              3.5       1.0      14.0       0.0       0.0       0.0
11 H  px              0.6       0.0       0.9       0.1       0.0       0.0
11 H  py              0.1       0.2       3.2       0.1       0.0       0.0
12 H  s               0.2       0.2       7.7       0.0       0.0       0.0
12 H  pz              0.4       0.0       1.1       0.1       0.0       0.0
12 H  px              0.0       0.0       0.6       0.2       0.0       0.0
12 H  py              0.9       0.5      18.5       0.0       0.1       0.0
13 H  s               3.9       0.0       0.2       3.2       0.0       0.0
13 H  pz              9.2       0.0       0.3       8.9       0.0       0.1
13 H  px              9.0       0.0       0.4       3.8       0.0       0.0
13 H  py              1.1       0.0       0.6       0.7       0.0       0.0
14 H  s               3.4       1.2       0.0       3.0       0.1       0.1
14 H  pz              1.6       0.3       0.0       0.3       0.0       0.0
14 H  px              0.5       0.1       0.0       0.1       0.0       0.1
14 H  py             15.5       4.7       0.0      10.2       0.3       0.3
15 H  s               0.0       1.1       0.5       3.8       0.0       0.1
15 H  pz              0.2       2.4       1.0       8.5       0.0       0.2
15 H  px              0.2       1.9       1.3       5.2       0.1       0.1
15 H  py              0.0       0.1       0.1       0.2       0.0       0.0
16 H  s               0.6       0.0       0.0       0.0       7.1       0.0
16 H  pz              0.0       0.0       0.0       0.1       0.0       0.3
16 H  px              0.4       0.0       0.0       0.1       3.6       0.2
16 H  py              1.6       0.0       0.1       0.0      13.9       0.0
17 H  s               0.0       0.0       0.0       0.0       0.7       5.9
17 H  pz              0.0       0.1       0.0       0.0       1.1       5.4
17 H  px              0.0       0.0       0.0       0.1       0.0       0.3
17 H  py              0.0       0.1       0.1       0.0       1.6      14.5
18 H  s               0.0       0.0       0.0       0.0       3.1       0.8
18 H  pz              0.0       0.0       0.0       0.0       0.7       0.2
18 H  px              0.1       0.0       0.0       0.0       2.1       0.7
18 H  py              0.0       0.1       0.0       0.0       9.0       1.8
19 H  s               0.6       0.0       0.0       0.0       1.4       3.7
19 H  pz              0.3       0.0       0.0       0.1       0.0       2.7
19 H  px              1.7       0.0       0.0       0.0       3.6       5.6
19 H  py              0.0       0.0       0.0       0.0       0.2       0.1
20 H  s               1.1      12.6       0.3       2.3       0.0       0.0
20 H  pz              0.5       3.6       0.0       0.4       0.0       0.0
20 H  px              0.0       0.3       0.2       0.2       0.0       0.0
20 H  py              2.7      28.4       0.6       4.2       0.0       0.0



                      *****************************
                      * MAYER POPULATION ANALYSIS *
                      *****************************

  NA   - Mulliken gross atomic population
  ZA   - Total nuclear charge
  QA   - Mulliken gross atomic charge
  VA   - Mayer's total valence
  BVA  - Mayer's bonded valence
  FA   - Mayer's free valence

  ATOM       NA         ZA         QA         VA         BVA        FA
  0 N      7.6296     7.0000    -0.6296     2.8272     2.8272     0.0000
  1 C      5.9905     6.0000     0.0095     3.8322     3.8322     0.0000
  2 C      5.4432     6.0000     0.5568     3.9321     3.9321     0.0000
  3 O      8.5143     8.0000    -0.5143     2.0122     2.0122     0.0000
  4 C      6.2394     6.0000    -0.2394     3.8608     3.8608     0.0000
  5 C      5.7812     6.0000     0.2188     3.8643     3.8635     0.0008
  6 N      7.5286     7.0000    -0.5286     3.1304     3.1011     0.0293
  7 C      6.0394     6.0000    -0.0394     3.8135     3.8125     0.0010
  8 C      5.9565     6.0000     0.0435     3.5636     3.1935     0.3700
  9 N      7.5016     7.0000    -0.5016     3.1480     3.1169     0.0311
 10 O      8.4911     8.0000    -0.4911     2.0338     2.0338     0.0000
 11 H      0.7287     1.0000     0.2713     0.9050     0.9050     0.0000
 12 H      0.7272     1.0000     0.2728     0.9068     0.9068     0.0000
 13 H      0.8798     1.0000     0.1202     0.9499     0.9499     0.0000
 14 H      0.8571     1.0000     0.1429     0.9494     0.9494     0.0000
 15 H      0.8724     1.0000     0.1276     0.9563     0.9563     0.0000
 16 H      0.7105     1.0000     0.2895     0.9141     0.9140     0.0001
 17 H      0.8678     1.0000     0.1322     0.9576     0.9576     0.0000
 18 H      0.9050     1.0000     0.0950     0.9551     0.9540     0.0012
 19 H      0.7052     1.0000     0.2948     0.8992     0.8992     0.0001
 20 H      0.6310     1.0000     0.3690     0.8775     0.8775     0.0000

  Mayer bond orders larger than 0.100000
B(  0-N ,  1-C ) :   1.0061 B(  0-N , 11-H ) :   0.8980 B(  0-N , 12-H ) :   0.8943 
B(  1-C ,  2-C ) :   0.9226 B(  1-C ,  4-C ) :   0.9569 B(  1-C , 13-H ) :   0.9297 
B(  2-C ,  3-O ) :   1.8562 B(  2-C , 10-O ) :   1.1100 B(  4-C ,  5-C ) :   1.0115 
B(  4-C , 14-H ) :   0.9370 B(  4-C , 15-H ) :   0.9272 B(  5-C ,  6-N ) :   1.0489 
B(  5-C ,  7-C ) :   1.7008 B(  6-N ,  8-C ) :   1.0781 B(  6-N , 16-H ) :   0.8707 
B(  7-C ,  9-N ) :   1.0423 B(  7-C , 17-H ) :   0.9445 B(  8-C ,  9-N ) :   1.0932 
B(  8-C , 18-H ) :   0.9433 B(  9-N , 19-H ) :   0.8755 B( 10-O , 20-H ) :   0.8259 


-------
TIMINGS
-------

Total SCF time: 0 days 0 hours 0 min 45 sec 

Total time                  ....      45.209 sec
Sum of individual times     ....      42.716 sec  ( 94.5%)

SCF preparation             ....       0.532 sec  (  1.2%)
Fock matrix formation       ....      41.229 sec  ( 91.2%)
  Startup                   ....       0.009 sec  (  0.0% of F)
  Split-RI-J                ....       2.678 sec  (  6.5% of F)
  Chain of spheres X        ....      30.890 sec  ( 74.9% of F)
  XC integration            ....       7.024 sec  ( 17.0% of F)
    XC Preparation          ....       0.000 sec  (  0.0% of XC)
    Basis function eval.    ....       1.805 sec  ( 25.7% of XC)
    Density eval.           ....       1.982 sec  ( 28.2% of XC)
    XC-Functional eval.     ....       0.397 sec  (  5.7% of XC)
    XC-Potential eval.      ....       2.447 sec  ( 34.8% of XC)
  CPCM terms                ....       2.960 sec  (  7.2% of F)
Diagonalization             ....       0.000 sec  (  0.0%)
Density matrix formation    ....       0.040 sec  (  0.1%)
Total Energy calculation    ....       0.022 sec  (  0.0%)
Population analysis         ....       0.560 sec  (  1.2%)
Orbital Transformation      ....       0.049 sec  (  0.1%)
Orbital Orthonormalization  ....       0.000 sec  (  0.0%)
DIIS solution               ....       0.198 sec  (  0.4%)
  MO trafo                  ....       0.024 sec  ( 12.2 % of DIIS)
  Orb grad                  ....       0.000 sec  (  0.0 % of DIIS)
  Energy W gradient         ....       0.000 sec  (  0.0 % of DIIS)
  DIIS error                ....       0.035 sec  ( 17.6 % of DIIS)
  DIIS work                 ....       0.109 sec  ( 55.0 % of DIIS)
  Form Q                    ....       0.000 sec  (  0.0 % of DIIS)
  Form QpQm                 ....       0.000 sec  (  0.0 % of DIIS)
  Exp/Cayley                ....       0.000 sec  (  0.0 % of DIIS)
  Orb update                ....       0.000 sec  (  0.0 % of DIIS)
  Wake-sleep                ....       0.006 sec  (  2.9 % of DIIS)
SOSCF solution              ....       0.086 sec  (  0.2%)
  MO trafo                  ....       0.038 sec  ( 44.6 % of SOSCF)
  Orb grad                  ....       0.003 sec  (  3.1 % of SOSCF)
  Rot update                ....       0.005 sec  (  5.9 % of SOSCF)
  Step                      ....       0.037 sec  ( 42.4 % of SOSCF)
Finished LeanSCF after  45.4 sec

Maximum memory used throughout the entire LEANSCF-calculation: 31.2 MB


-------------------------------------------------------------------------------
                          DFT DISPERSION CORRECTION                            
                                                                               
                              DFTD3 V3.1  Rev 1                                
                          USING Becke-Johnson damping                          
-------------------------------------------------------------------------------
The B3LYP functional is recognized
Active option DFTDOPT                   ...         4   

molecular C6(AA) [au] = 4159.613252 


            DFT-D V3
 parameters
 s6 scaling factor         :     1.0000 
 a1 scaling factor         :     0.3981 
 s8 scaling factor         :     1.9889 
 a2 scaling factor         :     4.4211 
 ad hoc parameters k1-k3   :    16.0000     1.3333    -4.0000 

 Edisp/kcal,au: -22.680898080588  -0.036144307933 
 E6   /kcal   : -10.962290831 
 E8   /kcal   : -11.718607249 
 % E8         :  51.667298217 

-------------------------   ----------------
Dispersion correction           -0.036144308
-------------------------   ----------------


-------------------------   --------------------
FINAL SINGLE POINT ENERGY      -549.043176325373
-------------------------   --------------------

                                *** OPTIMIZATION RUN DONE ***



           ************************************************************
           *        Program running with 2 parallel MPI-processes     *
           *              working on a common directory               *
           ************************************************************

------------------------------------------------------------------------------
                              ORCA PROPERTY CALCULATIONS
------------------------------------------------------------------------------

GBWName                                 ... /kaggle/working/His-1/His_InterFrag.gbw
Number of atoms                         ...     21
Number of basis functions               ...    204
Max core memory                         ...   3000 MB

Electric properties:
Dipole moment                           ... YES
Quadrupole moment                       ...  NO
Static polarizability (Dipole/Dipole)   ...  NO
Static polarizability (Dipole/Quad.)    ...  NO
Static polarizability (Quad./Quad.)     ...  NO
Static polarizability (Velocity)        ...  NO
Static hyperpolarizability              ...  NO

Atomic electric properties:
Dipole moment                           ...  NO
Quadrupole moment                       ...  NO
Static polarizability                   ...  NO

Choice of electric origin               ... Center of mass
Position of electric origin             ...     4.449116    -3.625024     3.404096

General magnetic properties:
Magnetizability                         ...  NO

EPR properties:
g-Tensor (aka g-matrix)                 ...  NO
Zero-Field splitting spin-orbit         ...  NO
Zero-field splitting spin-spin          ...  NO
Hyperfine couplings                     ...  NO (   0 nuclei)
Quadrupole couplings                    ...  NO (   0 nuclei)
Contact density                         ...  NO (   0 nuclei)

NMR properties:
Chemical shifts                         ...  NO (   0 nuclei)
Spin-rotation constants                 ...  NO (   0 nuclei)
Spin-spin couplings                     ...  NO (   0 nuclei,    0 pairs)

Choice of magnetic origin               ... GIAO
Position of magnetic origin             ...     0.000000     0.000000     0.000000

Properties with geometric perturbations:
SCF Hessian                             ...  NO
IR spectrum                             ...  NO
VCD spectrum                            ...  NO
X-ray spectroscopy properties:
SCF XES/XAS/RIXS spectra                ...  NO

SCF SOC stabilization energy            ...  NO
Diagonal Born-Oppenheimer correction    ...  NO

-------------
DIPOLE MOMENT
-------------

Method             : SCF
Type of density    : Electron Density
Multiplicity       :   2
Irrep              :   0
Energy             :  -549.0070320174398830 Eh
Basis              : AO
                                X                 Y                 Z
Electronic contribution:      1.022840088      -3.451645814       0.526047122
Nuclear contribution   :     -0.156503433       3.801665816      -2.493117238
                        -----------------------------------------
Total Dipole Moment    :      0.866336655       0.350020002      -1.967070117
                        -----------------------------------------
Magnitude (a.u.)       :      2.177709358
Magnitude (Debye)      :      5.535297290



--------------------
Rotational spectrum 
--------------------
 
Rotational constants in cm-1:             0.066995             0.025140             0.021544 
Rotational constants in MHz :          2008.449865           753.667444           645.866896 

Dipole components along the rotational axes: 
x,y,z [a.u.] :    -0.123940     0.381210    -2.140499 
x,y,z [Debye]:    -0.315031     0.968960    -5.440716 

 

Dipole moment calculation done in   0.0 sec 

Maximum memory used throughout the entire PROP-calculation: 13.0 MB

--------------------------------
SUGGESTED CITATIONS FOR THIS RUN
--------------------------------

Below you find a list of papers that are relevant to this ORCA run
We neither can nor want to force you to cite these papers, but we appreciate if you do
You receive ORCA, which is the product of decades of hard work by many enthusiastic individuals, for free
The only thing we kindly ask in return is that you cite our papers,
We deeply appreciate it, if you show your appreciation for ORCA by not just citing the generic ORCA reference.

Please note that relegating all ORCA citations to the supporting information does *not* help us.
SI sections are not indexed - citations you put there will not count into any citation statistics
But we need these citations in order to attract the funding resources that allow us to do what we are doing

Therefore, if you are a happy ORCA user, please consider citing a few of the papers listed below in the main body of your paper

In addition to the list printed below, the program has created the file /kaggle/working/His-1/His_InterFrag.bibtex that contains the list in bibtex format
You can import this file easily into all common literature databanks and citation aid programs

It goes without saying that in many instances, there are alternative algorithms to achieve similar
results as the ones you have gotten from ORCA. It is, of course, also the case that in some instances
ORCA just re-implements algorithms worked out by others. We are fully aware of that and we are also
fully appreciative of our colleagues work. Hence this citation list should not be read as indicating
that the listed papers, which are focused on our own work, are the only ones worth citing. It simply
meant to make it easier for users to cite ORCA specific papers. It is not a substitute for doing your
own literature research and citing the relevant literature in a scientifically appropriate manner.

List of essential papers. We consider these as the minimum necessary citations

  1. Neese, F.
     Software update: the ORCA program system, version 6.0
     WIRES Comput. Molec. Sci. 2025 15(1), e70019
     doi.org/10.1002/wcms.70019

List of papers to cite with high priority. The work reported in these papers was absolutely
necessary for this run to complete.
Our perspective: the developers of density functionals and basis sets usually get cited in chemistry papers
Good! But without the algorithms to do something with them, the functionals or basis sets would not do anything.
Hence, in our opinion, the algorithm design and method developments papers are equally worthy of getting cited

  1. Neese, F.
     An improvement of the resolution of the identity approximation for the formation of the Coulomb matrix
     J. Comp. Chem. 2003 24(14), 1740-1747
     doi.org/10.1002/jcc.10318
  2. Neese, F.; Wennmohs, F.; Hansen, A.; Becker, U.
     Efficient, approximate and parallel Hartree-Fock and hybrid DFT calculations. A 'chain-of-spheres' algorithm for the Hartree-Fock exchange
     Chem. Phys. 2009 356(1-3), 98-109
     doi.org/10.1016/j.chemphys.2008.10.036
  3. Grimme, S.; Antony, J.; Ehrlich, S.; Krieg, H.
     A consistent and accurate ab initio parametrization of density functional dispersion correction (DFT-D) for the 94 elements H-Pu
     J. Chem. Phys. 2010 132 , 154104
     doi.org/10.1063/1.3382344
  4. Grimme, S.; Ehrlich, S.; Goerigk, L.
     Effect of the damping function in dispersion corrected density functional theory
     J. Comput. Chem. 2011 32(7), 1456-1465
     doi.org/10.1002/jcc.21759
  5. Garcia-Rates, M.; Neese, F.
     Effect of the Solute Cavity on the Solvation Energy and its Derivatives within the Framework of the Gaussian Charge Scheme
     J. Comput. Chem. 2020 41 , 922-939
     doi.org/10.1002/jcc.26139
  6. Helmich-Paris, B.; de Souza, B.; Neese, F.; Izsák, R.
     An improved chain of spheres for exchange algorithm
     J. Chem. Phys. 2021 155(10), 104109
     doi.org/10.1063/5.0058766
  7. Neese, F.
     The SHARK Integral Generation and Digestion System
     J. Comp. Chem. 2022 44(3), 381
     doi.org/10.1002/jcc.26942

List of suggested additional citations. These are papers that are important in the 'surrounding' of 
of this run, or papers that preceded the highly important papers. If you like your results we are grateful for a citation.

  1. Izsak, R.; Neese, F.
     An overlap fitted chain of spheres exchange method
     J. Chem. Phys. 2011 135 , 144105
     doi.org/10.1063/1.3646921
  2. Izsak, R.; Hansen, A.; Neese, F.
     The resolution of identity and chain of spheres approximations for the LPNO-CCSD singles Fock term
     Molec. Phys. 2012 110 , 2413-2417
     doi.org/10.1080/00268976.2012.687466
  3. Neese, F.
     The ORCA program system
     WIRES Comput. Molec. Sci. 2012 2(1), 73-78
     doi.org/10.1002/wcms.81
  4. Izsak, R.; Neese, F.; Klopper, W.
     Robust fitting techniques in the chain of spheres approximation to the Fock exchange: The role of the complementary space
     J. Chem. Phys. 2013 139 , 
     doi.org/10.1063/1.4819264
  5. Neese, F.
     Software update: the ORCA program system, version 4.0
     WIRES Comput. Molec. Sci. 2018 8(1), 1-6
     doi.org/10.1002/wcms.1327
  6. Neese, F.; Wennmohs, F.; Becker, U.; Riplinger, C.
     The ORCA quantum chemistry program package
     J. Chem. Phys. 2020 152(22), 224108
     doi.org/10.1063/5.0004608
  7. Neese, F.
     Software update: The ORCA program system—Version 5.0
     WIRES Comput. Molec. Sci. 2022 12(1), e1606
     doi.org/10.1002/wcms.1606

List of optional additional citations

  1. Neese, F.
     Approximate second-order SCF convergence for spin unrestricted wavefunctions
     Chem. Phys. Lett. 2000 325(1-3), 93-98
     doi.org/10.1016/s0009-2614(00)00662-x

Timings for individual modules:

Sum of individual times          ...     2509.530 sec (=  41.825 min)
Startup calculation              ...       71.178 sec (=   1.186 min)   2.8 %
SCF iterations                   ...     1569.871 sec (=  26.165 min)  62.6 %
Property calculations            ...        0.450 sec (=   0.008 min)   0.0 %
SCF Gradient evaluation          ...      867.872 sec (=  14.465 min)  34.6 %
Geometry relaxation              ...        0.159 sec (=   0.003 min)   0.0 %
                             ****ORCA TERMINATED NORMALLY****
TOTAL RUN TIME: 0 days 0 hours 42 minutes 2 seconds 151 msec
