
                                 *****************
                                 * O   R   C   A *
                                 *****************

                                            #,                                       
                                            ###                                      
                                            ####                                     
                                            #####                                    
                                            ######                                   
                                           ########,                                 
                                     ,,################,,,,,                         
                               ,,#################################,,                 
                          ,,##########################################,,             
                       ,#########################################, ''#####,          
                    ,#############################################,,   '####,        
                  ,##################################################,,,,####,       
                ,###########''''           ''''###############################       
              ,#####''   ,,,,##########,,,,          '''####'''          '####       
            ,##' ,,,,###########################,,,                        '##       
           ' ,,###''''                  '''############,,,                           
         ,,##''                                '''############,,,,        ,,,,,,###''
      ,#''                                            '''#######################'''  
     '                                                          ''''####''''         
             ,#######,   #######,   ,#######,      ##                                
            ,#'     '#,  ##    ##  ,#'     '#,    #''#        ,####,    ,#,          
            ##       ##  ##   ,#'  ##            #'  '#       #'       ,# #          
            ##       ##  #######   ##           ,######,      #####,      #          
            '#,     ,#'  ##    ##  '#,     ,#' ,#      #,     #,   #      #          
             '#######'   ##     ##  '#######'  #'      '#     '####' #    #          



                #########################################################
                #                        -***-                          #
                #          Department of theory and spectroscopy        #
                #                                                       #
                #                      Frank Neese                      #
                #                                                       #
                #     Directorship, Architecture, Infrastructure        #
                #                    SHARK, DRIVERS                     #
                #        Core code/Algorithms in most modules           #
                #                                                       #
                #        Max Planck Institute fuer Kohlenforschung      #
                #                Kaiser Wilhelm Platz 1                 #
                #                 D-45470 Muelheim/Ruhr                 #
                #                      Germany                          #
                #                                                       #
                #                  All rights reserved                  #
                #                        -***-                          #
                #########################################################


                         Program Version 6.1.1  -  RELEASE   -
                                (GIT: $487d211c$)
                          ($2025-11-21 10:33:24 +0100$)
                                                                         
                                  - NO-DMRG VERSION -                    
                                                                         


 With contributions from (in alphabetic order):
[Max-Planck-Institut fuer Kohlenforschung]                               
  Daniel Aravena         : Magnetic Suceptibility                        
  Michael Atanasov       : Ab Initio Ligand Field Theory (pilot matlab implementation)
  Alexander A. Auer      : GIAO ZORA, VPT2 properties, NMR spectrum      
  Ute Becker             : All parallelization in ORCA, NUMFREQ, NUMCALC 
  Giovanni Bistoni       : ED, misc. LED, open-shell LED, HFLD           
  Dmytro Bykov           : pre 5.0 version of the SCF Hessian            
  Marcos Casanova-Páez   : Triplet and SCS-CIS(D). UHF-(DLPNO)-IP/EA/STEOM-CCSD. UHF-CVS-IP/STEOM-CCSD   
  Vijay G. Chilkuri      : MRCI spin determinant printing, contributions to CSF-ICE 
  Pauline Colinet        : FMM embedding                                 
  Dipayan Datta          : RHF DLPNO-CCSD density                        
  Achintya Kumar Dutta   : EOM-CC, STEOM-CC                              
  Nicolas Foglia         : Exact transition moments, OPA infrastructure, MCD improvements    
  Dmitry Ganyushin       : Spin-Orbit,Spin-Spin,Magnetic field MRCI      
  Miquel Garcia-Rates    : C-PCM and meta-GGA Hessian, CCSD/C-PCM, Gaussian charge scheme 
  Tiago L. C. Gouveia    : GS-ROHF, GS-ROCIS                             
  Yang Guo               : DLPNO-NEVPT2, F12-NEVPT2, CIM, IAO-localization        
  Andreas Hansen         : Spin unrestricted coupled pair/coupled cluster methods 
  Ingolf Harden          : AUTO-CI MPn and infrastructure                
  Benjamin Helmich-Paris : MC-RPA, TRAH-(SCF,CASSCF), AVAS, COSX integrals, SCF dyn. polar., MC-PDFT, srDFT 
  Lee Huntington         : MR-EOM, pCC                                   
  Robert Izsak           : Overlap fitted RIJCOSX, COSX-SCS-MP3, EOM     
  Riya Kayal             : Wick's Theorem for AUTO-CI, AUTO-CI UHF-CCSDT 
  Emily Kempfer          : AUTO-CI RHF CISDT and CCSDT, approximate NEVPT4
  Christian Kollmar      : KDIIS, OOCD, Brueckner-CCSD(T), CCSD density, CASPT2, CASPT2-K, improved NEVPT2 
  Axel Koslowski         : Symmetry handling                             
  Simone Kossmann        : meta-GGA functionals, TD-DFT gradient, OOMP2, (MP2 Hessian; deprecated post 5.0) 
  Lucas Lang             : DCDCAS, Hyperfine gauge corrections, ICE-SOC+SSC
  Marvin Lechner         : AUTO-CI (C++ implementation), FIC-MRCC        
  Spencer Leger          : CASSCF response                               
  Dagmar Lenk            : GEPOL surface, SMD, ORCA-2-JSON               
  Dimitrios Liakos       : Extrapolation schemes; Compound Job, Property file
  Dimitrios Manganas     : Further ROCIS development; embedding schemes. LFT, Crystal Embedding 
  Dimitrios Pantazis     : SARC Basis sets                               
  Anastasios Papadopoulos: AUTO-CI, single reference methods and gradients 
  Taras Petrenko         : pre 6.0 DFT Hessian and TD-DFT gradient,  ECA, NRVS 
  Petra Pikulova         : Analytic Raman intensities                    
  Peter Pinski           : DLPNO-MP2, DLPNO-MP2 Gradient                 
  Shashank Vittal Rao    : ES-AILFT, MagRelax                            
  Christoph Reimann      : Effective Core Potentials                     
  Marius Retegan         : Local ZFS, SOC                                
  Christoph Riplinger    : Optimizer, TS searches, QM/MM, DLPNO-CCSD(T), (RO)-DLPNO pert. Triples 
  Michael Roemelt        : Original ROCIS implementation, recursive CI coupling coefficients
  Masaaki Saitow         : Open-shell DLPNO-CCSD energy and density      
  Barbara Sandhoefer     : DKH picture change effects                    
  Yorick L. A. Schmerwitz: GMF and freeze-and-release deltaSCF, NEB S-IDPP initial path                    
  Kantharuban Sivalingam : CASSCF convergence/infrastructure, NEVPT2, NEVPT3, NEVPT4(SD), FIC-MRCI and CEPA variants
  Bernardo de Souza      : ESD, SOC TD-DFT                               
  Georgi L. Stoychev     : AutoAux, RI-MP2 NMR, DLPNO-MP2 response, X2C  
  Van Anh Tran           : RI-MP2 g-tensors                              
  Willem Van den Heuvel  : Paramagnetic NMR                              
  Zikuan Wang            : NOTCH, Electric field optimization            
  Frank Wennmohs         : Technical directorship and infrastructure     
  Hang Xu                : AUTO-CI-Response properties                   
                                                                         
[FACCTs GmbH]                                                            
  Markus Bursch, Nicolas Foglia, Miquel Garcia-Rates, Ingolf Harden, Hagen Neugebauer, Anastasios Papadopoulos, 
  Christoph Riplinger, Bernardo de Souza, Georgi L. Stoychev                                                    
                                                                 
  APM, various basis sets, CI-OPT, improved COSX, DLPNO-Multilevel,           
  DOCKER, DRACO, updates on ESD, Fragmentator, GOAT, IRC, LR-CPCM, L-BFGS, MBIS, meta-GGA TD-DFT gradient, ML-optimized integration grids, 
  MM, NACMEs, nearIR, NEB, NEB-TS, NL-DFT gradient (VV10), 2- and 3-layer-ONIOM, interface openCOSMO-RS, QMMM,   
  Crystal-QMMM, RESP, rigid body optimization, SF, symmetry and pop. for TD-DFT, various functionals, SOLVATOR                                   
                                                                         
[Other institutions]                                                     
  V. Asgeirsson          : NEB                                           
  Christoph Bannwarth    : sTDA-DFT, sTD-DFT, PBEh-3c, B97-3c, D3        
  Giovanni Bistoni       : ETS/NOCV, ADLD/ADEX, COVALED                  
  Martin Brehm           : Molecular dynamics                            
  Ronald Cardenas        : ETS/NOCV                                      
  Martina Colucci        : COVALED                                       
  Sebastian Ehlert       : rSCAN, r2SCAN, r2SCAN-3c, D4, dhf basis sets  
  Marvin Friede          : D4 for Fr, Ra, Ac-Lr                          
  Lars Goerigk           : TD-DFT with DH, B97 family of functionals     
  Stefan Grimme          : VdW corrections, initial TS optimization, DFT functionals, gCP, sTDA/sTD-DF 
  Waldemar Hujo          : DFT-NL                                        
  H. Jonsson             : NEB                                           
  Holger Kruse           : gCP                                           
  Marcel Mueller         : wB97X-3c, vDZP basis set                      
  Hagen Neugebauer       : wr2SCAN, Native XTB                           
  Gianluca Regni         : ADLD/ADEX                                     
  Tobias Risthaus        : pre 6.0 range-separated hybrid DFT and stability analysis
  Lukas Wittmann         : regularized MP2, r2SCAN double-hybrids, wr2SCAN        
                                                                         
We gratefully acknowledge several colleagues who have allowed us to      
interface, adapt or use parts of their codes:                            
  Ed Valeev, F. Pavosevic, A. Kumar             : LibInt (2-el integral package), F12 methods 
  Garnet Chan, S. Sharma, J. Yang, R. Olivares  : DMRG                   
  Ulf Ekstrom                                   : XCFun DFT Library      
  Mihaly Kallay                                 : mrcc  (arbitrary order and MRCC methods)
  Frank Weinhold                                : gennbo (NPA and NBO analysis)           
  Simon Mueller                                 : openCOSMO-RS                            
  Christopher J. Cramer and Donald G. Truhlar   : smd solvation model                     
  S Lehtola, MJT Oliveira, MAL Marques          : LibXC Library                           
  Liviu Ungur et al                             : ANISO software                          


 Your calculation uses the libint2 library for the computation of 2-el integrals
 For citations please refer to: http://libint.valeyev.net

 Your ORCA version has been built with support for libXC version: 7.0.0
 For citations please refer to: https://libxc.gitlab.io

 This ORCA versions uses:
   CBLAS   interface :  Fast vector & matrix operations
   LAPACKE interface :  Fast linear algebra routines
   SCALAPACK package :  Parallel linear algebra routines
   Shared memory     :  Shared parallel matrices
   BLAS/LAPACK       :  OpenBLAS 0.3.29  USE64BITINT DYNAMIC_ARCH NO_AFFINITY SkylakeX SINGLE_THREADED
        Core in use  :  SkylakeX
   Copyright (c) 2011-2014, The OpenBLAS Project


  ***********************************
  * Starting time: Fri Mar 20 15:41:31 2026
  * Host name:     2d0b309e58f3
  * Process ID:    1596
  * Working dir.:  /kaggle/working
  ***********************************

NOTE: MaxCore=3000 MB was set to SCF,MP2,MDCI,CIPSI,MRCI,RASCI and CIS
      => If you want to overwrite this, your respective input block should be placed after the MaxCore statement
Your calculation utilizes the atom-pairwise dispersion correction
with the Becke-Johnson damping scheme (D3BJ)


Warning: RI is on but no J-basis has been assigned. Assigning Def2/J (nothing to worry about!)
================================================================================

----- Orbital basis set information -----
Your calculation utilizes the basis: 6-31G(d,p)
   H-He, Li-Ne : W. J. Hehre, R. Ditchfield and J.A. Pople, J. Chem. Phys. 56, 2257 (1972).
                 Note: He and Ne are unpublished basis sets taken from the Gaussian program.
                 Note: Li and B from J. D. Dill and J. A. Pople, J. Chem. Phys. 62, 2921 (1975).
   Na - Ar     : M. M. Francl, W. J. Pietro, W. J. Hehre, J. S. Binkley, M. S. Gordon, 
                 D. J. DeFrees and J. A. Pople, J. Chem. Phys. 77, 3654 (1982).
   K - Zn      : V. A. Rassolov, J. A. Pople, M. A. Ratner, and T. L. Windus, J. Chem. Phys. 109, 1223 (1998).

----- AuxJ basis set information -----
Your calculation utilizes the auxiliary basis: def2/J
   H-Rn: F. Weigend, Phys. Chem. Chem. Phys. 8, 1057 (2006).
   Fr-Lr: K. Eichkorn, F. Weigend, O. Treutler, R. Ahlrichs; Theor. Chem. Acc. 97, 119 (1997).

================================================================================
                                        WARNINGS
                       Please study these warnings very carefully!
================================================================================


WARNING: your system is open-shell and RHF/RKS was chosen
  ===> : WILL SWITCH to UHF/UKS


================================================================================
                                       INPUT FILE
================================================================================
NAME = /kaggle/working/His-2/His_InterFrag.inp
|  1> 
|  2> !RKS B3LYP 6-31G(d,p) TightSCF D3BJ
|  3> 
|  4> %pal nprocs 2 end
|  5> %maxcore 3000
|  6> 
|  7> %elprop
|  8>   Polar 1      # polarizability via CP-SCF
|  9> end
| 10> 
| 11> %output
| 12>   PrintLevel Normal
| 13>   Print[ P_OrbEn ] 2
| 14> end
| 15> 
| 16> *xyz 0 2
| 17>   N     -0.313864   -1.432775    0.337791
| 18>   C      1.097981   -1.646516    0.659572
| 19>   C      1.330702   -3.111142    0.986060
| 20>   O      0.583503   -3.813958    1.647190
| 21>   C      1.463380   -0.790756    1.901837
| 22>   C      2.854714   -0.995554    2.400710
| 23>   N      3.166807   -1.991010    3.348473
| 24>   C      3.992228   -0.325919    2.109307
| 25>   C      4.571232   -1.990792    3.585760
| 26>   N      5.054461   -0.864462    2.856719
| 27>   O      2.506402   -3.553556    0.497994
| 28>   H     -0.516479   -1.886780   -0.551520
| 29>   H     -0.437413   -0.435705    0.168630
| 30>   H      1.789315   -1.377476   -0.148715
| 31>   H      1.322302    0.256692    1.617663
| 32>   H      0.739865   -1.021685    2.691355
| 33>   H      2.650486   -2.861653    3.371311
| 34>   H      4.124749    0.548124    1.488669
| 35>   H      5.107285   -2.937564    3.476735
| 36>   H      5.984707   -0.895612    2.457477
| 37>   H      2.632637   -4.471900    0.800981
| 38> 
| 39> *
| 40> 
| 41>                          ****END OF INPUT****
================================================================================

                       ****************************
                       * Single Point Calculation *
                       ****************************

---------------------------------
CARTESIAN COORDINATES (ANGSTROEM)
---------------------------------
  N     -0.313864   -1.432775    0.337791
  C      1.097981   -1.646516    0.659572
  C      1.330702   -3.111142    0.986060
  O      0.583503   -3.813958    1.647190
  C      1.463380   -0.790756    1.901837
  C      2.854714   -0.995554    2.400710
  N      3.166807   -1.991010    3.348473
  C      3.992228   -0.325919    2.109307
  C      4.571232   -1.990792    3.585760
  N      5.054461   -0.864462    2.856719
  O      2.506402   -3.553556    0.497994
  H     -0.516479   -1.886780   -0.551520
  H     -0.437413   -0.435705    0.168630
  H      1.789315   -1.377476   -0.148715
  H      1.322302    0.256692    1.617663
  H      0.739865   -1.021685    2.691355
  H      2.650486   -2.861653    3.371311
  H      4.124749    0.548124    1.488669
  H      5.107285   -2.937564    3.476735
  H      5.984707   -0.895612    2.457477
  H      2.632637   -4.471900    0.800981

----------------------------
CARTESIAN COORDINATES (A.U.)
----------------------------
  NO LB      ZA    FRAG     MASS         X           Y           Z
   0 N     7.0000    0    14.007   -0.593117   -2.707552    0.638332
   1 C     6.0000    0    12.011    2.074883   -3.111464    1.246410
   2 C     6.0000    0    12.011    2.514662   -5.879206    1.863383
   3 O     8.0000    0    15.999    1.102661   -7.207336    3.112738
   4 C     6.0000    0    12.011    2.765387   -1.494312    3.593951
   5 C     6.0000    0    12.011    5.394628   -1.881324    4.536684
   6 N     7.0000    0    14.007    5.984398   -3.762464    6.327697
   7 C     6.0000    0    12.011    7.544218   -0.615898    3.986013
   8 C     6.0000    0    12.011    8.638377   -3.762052    6.776104
   9 N     7.0000    0    14.007    9.551547   -1.633596    5.398417
  10 O     8.0000    0    15.999    4.736413   -6.715248    0.941072
  11 H     1.0000    0     1.008   -0.976004   -3.565497   -1.042222
  12 H     1.0000    0     1.008   -0.826591   -0.823363    0.318665
  13 H     1.0000    0     1.008    3.381315   -2.603052   -0.281031
  14 H     1.0000    0     1.008    2.498789    0.485078    3.056940
  15 H     1.0000    0     1.008    1.398142   -1.930705    5.085924
  16 H     1.0000    0     1.008    5.008693   -5.407740    6.370855
  17 H     1.0000    0     1.008    7.794646    1.035804    2.813177
  18 H     1.0000    0     1.008    9.651370   -5.551191    6.570077
  19 H     1.0000    0     1.008   11.309457   -1.692461    4.643959
  20 H     1.0000    0     1.008    4.974963   -8.450666    1.513635

--------------------------------
INTERNAL COORDINATES (ANGSTROEM)
--------------------------------
 N      0   0   0     0.000000000000     0.00000000     0.00000000
 C      1   0   0     1.463739912371     0.00000000     0.00000000
 C      2   1   0     1.518513351229   109.62909360     0.00000000
 O      3   2   1     1.220389098754   125.31713091   319.17541843
 C      2   1   3     1.552115954762   108.81490625   241.02000122
 C      5   2   1     1.492188590792   114.29399788   175.60259524
 N      6   5   2     1.409464221878   121.88402238   271.21374766
 C      6   5   2     1.351763604270   130.13328108    92.75625620
 C      7   6   5     1.424329578615   109.28381211   177.34741307
 N      8   6   5     1.406055549003   109.35385474   178.45793249
 O      3   2   1     1.347668007245   111.86777331   141.56081810
 H      1   2   3     1.018846128211   108.58024545   290.91314377
 H      1   2   3     1.018836779971   107.23968333   177.37895258
 H      2   1   3     1.097111250296   114.20667757   120.50654014
 H      5   2   1     1.094442861489   106.82875114   297.22813000
 H      5   2   1     1.095509393200   107.76488840    52.70357717
 H      7   6   5     1.012486139527   120.63533901    32.07474772
 H      8   6   5     1.080140966881   128.90021060     4.03340990
 H      9   7   6     1.093442494792   117.81699382   233.29856912
 H     10   8   6     1.012779402229   119.74495302   145.89011889
 H     11   3   2     0.975239508905   108.03137065   175.36920462

---------------------------
INTERNAL COORDINATES (A.U.)
---------------------------
 N      0   0   0     0.000000000000     0.00000000     0.00000000
 C      1   0   0     2.766067565671     0.00000000     0.00000000
 C      2   1   0     2.869574364526   109.62909360     0.00000000
 O      3   2   1     2.306201173468   125.31713091   319.17541843
 C      2   1   3     2.933074082589   108.81490625   241.02000122
 C      5   2   1     2.819827776758   114.29399788   175.60259524
 N      6   5   2     2.663501374910   121.88402238   271.21374766
 C      6   5   2     2.554463009873   130.13328108    92.75625620
 C      7   6   5     2.691592828026   109.28381211   177.34741307
 N      8   6   5     2.657059916696   109.35385474   178.45793249
 O      3   2   1     2.546723453141   111.86777331   141.56081810
 H      1   2   3     1.925340154925   108.58024545   290.91314377
 H      1   2   3     1.925322489312   107.23968333   177.37895258
 H      2   1   3     2.073239801502   114.20667757   120.50654014
 H      5   2   1     2.068197277439   106.82875114   297.22813000
 H      5   2   1     2.070212730287   107.76488840    52.70357717
 H      7   6   5     1.913321518097   120.63533901    32.07474772
 H      8   6   5     2.041170613433   128.90021060     4.03340990
 H      9   7   6     2.066306858349   117.81699382   233.29856912
 H     10   8   6     1.913875704290   119.74495302   145.89011889
 H     11   3   2     1.842935586811   108.03137065   175.36920462

---------------------
BASIS SET INFORMATION
---------------------
There are 4 groups of distinct atoms

 Group   1 Type N   : 10s4p1d contracted to 3s2p1d pattern {631/31/1}
 Group   2 Type C   : 10s4p1d contracted to 3s2p1d pattern {631/31/1}
 Group   3 Type O   : 10s4p1d contracted to 3s2p1d pattern {631/31/1}
 Group   4 Type H   : 4s1p contracted to 2s1p pattern {31/1}

Atom   0N    basis set group =>   1
Atom   1C    basis set group =>   2
Atom   2C    basis set group =>   2
Atom   3O    basis set group =>   3
Atom   4C    basis set group =>   2
Atom   5C    basis set group =>   2
Atom   6N    basis set group =>   1
Atom   7C    basis set group =>   2
Atom   8C    basis set group =>   2
Atom   9N    basis set group =>   1
Atom  10O    basis set group =>   3
Atom  11H    basis set group =>   4
Atom  12H    basis set group =>   4
Atom  13H    basis set group =>   4
Atom  14H    basis set group =>   4
Atom  15H    basis set group =>   4
Atom  16H    basis set group =>   4
Atom  17H    basis set group =>   4
Atom  18H    basis set group =>   4
Atom  19H    basis set group =>   4
Atom  20H    basis set group =>   4
---------------------------------
AUXILIARY/J BASIS SET INFORMATION
---------------------------------
There are 4 groups of distinct atoms

 Group   1 Type N   : 12s5p4d2f1g contracted to 6s4p3d1f1g pattern {711111/2111/211/2/1}
 Group   2 Type C   : 12s5p4d2f1g contracted to 6s4p3d1f1g pattern {711111/2111/211/2/1}
 Group   3 Type O   : 12s5p4d2f1g contracted to 6s4p3d1f1g pattern {711111/2111/211/2/1}
 Group   4 Type H   : 5s2p1d contracted to 3s1p1d pattern {311/2/1}

Atom   0N    basis set group =>   1
Atom   1C    basis set group =>   2
Atom   2C    basis set group =>   2
Atom   3O    basis set group =>   3
Atom   4C    basis set group =>   2
Atom   5C    basis set group =>   2
Atom   6N    basis set group =>   1
Atom   7C    basis set group =>   2
Atom   8C    basis set group =>   2
Atom   9N    basis set group =>   1
Atom  10O    basis set group =>   3
Atom  11H    basis set group =>   4
Atom  12H    basis set group =>   4
Atom  13H    basis set group =>   4
Atom  14H    basis set group =>   4
Atom  15H    basis set group =>   4
Atom  16H    basis set group =>   4
Atom  17H    basis set group =>   4
Atom  18H    basis set group =>   4
Atom  19H    basis set group =>   4
Atom  20H    basis set group =>   4


           ************************************************************
           *        Program running with 2 parallel MPI-processes     *
           *              working on a common directory               *
           ************************************************************
------------------------------------------------------------------------------
                             ORCA STARTUP CALCULATIONS
                           -- RI-GTO INTEGRALS CHOSEN --
------------------------------------------------------------------------------
------------------------------------------------------------------------------
                   ___                                                        
                  /   \      - P O W E R E D   B Y -                         
                 /     \                                                     
                 |  |  |   _    _      __       _____    __    __             
                 |  |  |  | |  | |    /  \     |  _  \  |  |  /  |          
                  \  \/   | |  | |   /    \    | | | |  |  | /  /          
                 / \  \   | |__| |  /  /\  \   | |_| |  |  |/  /          
                |  |  |   |  __  | /  /__\  \  |    /   |      \           
                |  |  |   | |  | | |   __   |  |    \   |  |\   \          
                \     /   | |  | | |  |  |  |  | |\  \  |  | \   \       
                 \___/    |_|  |_| |__|  |__|  |_| \__\ |__|  \__/        
                                                                              
                      - O R C A' S   B I G   F R I E N D -                    
                                      &                                       
                       - I N T E G R A L  F E E D E R -                       
                                                                              
 v1 FN, 2020, v2 2021, v3 2022-2024                                           
------------------------------------------------------------------------------


----------------------
SHARK INTEGRAL PACKAGE
----------------------

Number of atoms                             ...     21
Number of basis functions                   ...    204
Number of shells                            ...     96
Maximum angular momentum                    ...      2
Integral batch strategy                     ... SHARK/LIBINT Hybrid
RI-J (if used) integral strategy            ... SPLIT-RIJ (Revised 2003 algorithm where possible)
Printlevel                                  ...      1
Contraction scheme used                     ... SEGMENTED contraction
Prescreening option                         ... SCHWARTZ
   Thresh                                   ... 2.500e-11
   Tcut                                     ... 2.500e-12
   Tpresel                                  ... 2.500e-12 
Coulomb Range Separation                    ... NOT USED
Exchange Range Separation                   ... NOT USED
Multipole approximations                    ... NOT USED
Finite Nucleus Model                        ... NOT USED
CABS basis                                  ... NOT available
Auxiliary Coulomb fitting basis             ... AVAILABLE
   # of basis functions in Aux-J            ...    649
   # of shells in Aux-J                     ...    215
   Maximum angular momentum in Aux-J        ...      4
Auxiliary J/K fitting basis                 ... NOT available
Auxiliary Correlation fitting basis         ... NOT available
Auxiliary 'external' fitting basis          ... NOT available

Checking pre-screening integrals            ... done (  0.0 sec) Dimension = 96
   => SHARK Basis and OBASIS are compatible. Storing Pre-screening
Shell pair information
Shell pair cut-off parameter TPreSel        ...   2.5e-12
Total number of shell pairs                 ...      4656
Shell pairs after pre-screening             ...      4098
Total number of primitive shell pairs       ...     23481
Primitive shell pairs kept                  ...     13188
          la=0 lb=0:   1249 shell pairs
          la=1 lb=0:   1490 shell pairs
          la=1 lb=1:    472 shell pairs
          la=2 lb=0:    513 shell pairs
          la=2 lb=1:    312 shell pairs
          la=2 lb=2:     62 shell pairs

Checking whether 4 symmetric matrices of dimension 204 fit in memory
:Max Core in MB      =   3000.00
 MB in use           =      8.98
 MB left             =   2991.02
 MB needed           =      0.64
 Data fit in memory  = YES
Calculating RI/J V-Matrix + Cholesky decomp.... done (  0.0 sec)
Calculating Nuclear repulsion               ... done (  0.0 sec) ENN=    633.951108523693 Eh

Diagonalization of the overlap matrix:
Smallest eigenvalue                        ... 1.418e-03
Time for diagonalization                   ...    0.007 sec
Threshold for overlap eigenvalues          ... 1.000e-07
Number of eigenvalues below threshold      ... 0
Time for construction of square roots      ...    0.003 sec
Total time needed                          ...    0.011 sec

-------------------
DFT GRID GENERATION
-------------------

General Integration Accuracy     IntAcc      ... 4.388
Radial Grid Type                 RadialGrid  ... OptM3 with GC (2021)
Angular Grid (max. ang.)         AngularGrid ... 4 (Lebedev-302)
Angular grid pruning method      GridPruning ... 4 (adaptive)
Weight generation scheme         WeightScheme... mBecke (2022)
Basis function cutoff            BFCut       ... 1.0000e-11
Integration weight cutoff        WCut        ... 1.0000e-14
Partially contracted basis set               ... off
Rotationally invariant grid construction     ... off
Angular grids for H and He will be reduced by one unit

Total number of grid points                  ...    98266
Total number of batches                      ...     1546
Average number of points per batch           ...       63
Average number of grid points per atom       ...     4679

--------------------
COSX GRID GENERATION
--------------------

GRIDX 1
-------
General Integration Accuracy     IntAcc      ... 3.816
Radial Grid Type                 RadialGrid  ... OptM3 with GC (2021)
Angular Grid (max. ang.)         AngularGrid ... 1 (Lebedev-50)
Angular grid pruning method      GridPruning ... 4 (adaptive)
Weight generation scheme         WeightScheme... mBecke (2022)
Basis function cutoff            BFCut       ... 1.0000e-11
Integration weight cutoff        WCut        ... 1.0000e-14
Partially contracted basis set               ... on
Rotationally invariant grid construction     ... off
Angular grids for H and He will be reduced by one unit

Total number of grid points                  ...    12529
Total number of batches                      ...      111
Average number of points per batch           ...      112
Average number of grid points per atom       ...      597
UseSFitting                                  ... on

GRIDX 2
-------
General Integration Accuracy     IntAcc      ... 4.020
Radial Grid Type                 RadialGrid  ... OptM3 with GC (2021)
Angular Grid (max. ang.)         AngularGrid ... 2 (Lebedev-110)
Angular grid pruning method      GridPruning ... 4 (adaptive)
Weight generation scheme         WeightScheme... mBecke (2022)
Basis function cutoff            BFCut       ... 1.0000e-11
Integration weight cutoff        WCut        ... 1.0000e-14
Partially contracted basis set               ... on
Rotationally invariant grid construction     ... off
Angular grids for H and He will be reduced by one unit

Total number of grid points                  ...    27192
Total number of batches                      ...      225
Average number of points per batch           ...      120
Average number of grid points per atom       ...     1295
UseSFitting                                  ... on

GRIDX 3
-------
General Integration Accuracy     IntAcc      ... 4.338
Radial Grid Type                 RadialGrid  ... OptM3 with GC (2021)
Angular Grid (max. ang.)         AngularGrid ... 3 (Lebedev-194)
Angular grid pruning method      GridPruning ... 4 (adaptive)
Weight generation scheme         WeightScheme... mBecke (2022)
Basis function cutoff            BFCut       ... 1.0000e-11
Integration weight cutoff        WCut        ... 1.0000e-14
Partially contracted basis set               ... on
Rotationally invariant grid construction     ... off
Angular grids for H and He will be reduced by one unit

Total number of grid points                  ...    59626
Total number of batches                      ...      474
Average number of points per batch           ...      125
Average number of grid points per atom       ...     2839
UseSFitting                                  ... on
Grids setup in   2.0 sec
Initializing property integral containers    ... done (  0.0 sec)

SHARK setup successfully completed in   2.2 seconds

Maximum memory used throughout the entire STARTUP-calculation: 33.4 MB


           ************************************************************
           *        Program running with 2 parallel MPI-processes     *
           *              working on a common directory               *
           ************************************************************
-------------------------------------------------------------------------------
                                 ORCA GUESS
                   Start orbitals & Density for SCF / CASSCF
-------------------------------------------------------------------------------

------------
SCF SETTINGS
------------
Hamiltonian:
 Density Functional     Method          .... DFT(GTOs)
 Exchange Functional    Exchange        .... B88
   X-Alpha parameter    XAlpha          ....  0.666667
   Becke's b parameter  XBeta           ....  0.004200
 Correlation Functional Correlation     .... LYP
 LDA part of GGA corr.  LDAOpt          .... VWN-5
 Gradients option       PostSCFGGA      .... off
 Hybrid DFT is turned on
   Fraction HF Exchange ScalHFX         ....  0.200000
   Scaling of DF-GGA-X  ScalDFX         ....  0.720000
   Scaling of DF-GGA-C  ScalDFC         ....  0.810000
   Scaling of DF-LDA-C  ScalLDAC        ....  1.000000
   Perturbative correction              ....  0.000000
   NL short-range parameter             ....  4.800000
 RI-approximation to the Coulomb term is turned on
   Number of AuxJ basis functions       .... 649
   RIJ-COSX (HFX calculated with COS-X)).... on


General Settings:
 Integral files         IntName         .... /kaggle/working/His-2/His_InterFrag
 Hartree-Fock type      HFTyp           .... UHF
 Total Charge           Charge          ....    0
 Multiplicity           Mult            ....    2
 Number of Electrons    NEL             ....   83
 Basis Dimension        Dim             ....  204
 Nuclear Repulsion      ENuc            ....    633.9511085237 Eh

Convergence Acceleration:
 AO-DIIS                CNVDIIS         .... on
   Start iteration      DIISMaxIt       ....    12
   Startup error        DIISStart       ....  0.200000
   # of expansion vecs  DIISMaxEq       ....     5
   Bias factor          DIISBfac        ....   1.050
   Max. coefficient     DIISMaxC        ....  10.000
 MO-DIIS                CNVKDIIS        .... off
 Trust-Rad. Augm. Hess. CNVTRAH         .... auto
   Auto Start mean grad. ratio tolernc. ....  1.125000
   Auto Start start iteration           ....    50
   Auto Start num. interpolation iter.  ....    10
   Max. Number of Micro iterations      ....    24
   Max. Number of Macro iterations      .... Maxiter - #DIIS iter
   Number of Davidson start vectors     ....     2
   Converg. threshold    (grad. norm)   ....   1.000e-05
   Grad. Scal. Fac. for Micro threshold ....   0.100
   Minimum threshold for Micro iter.    ....   1.000e-02
   NR start threshold (gradient norm)   ....   1.000e-04
   Initial trust radius                 ....   0.400
   Minimum AH scaling param. (alpha)    ....   1.000
   Maximum AH scaling param. (alpha)    .... 1000.000
   Quad. conv. algorithm                .... NR
   White noise on init. David. guess    .... on
   Maximum white noise                  ....   0.010
   Pseudo random numbers                .... off
   Inactive MOs                         .... canonical
   Orbital update algorithm             .... Taylor
   Preconditioner                       .... Diag
   Full preconditioner red. dimension   ....   250
 SOSCF                 CNVSOSCF           .... on
   Start iteration     SOSCFMaxIt         ....   150
   Startup grad/error  SOSCFStart         ....  0.003300
   Hessian update      SOSCFHessUp        .... L-BFGS
   Autom. constraints  SOSCFAutoConstrain .... off
 Level Shifting         CNVShift        .... on
   Level shift para.    LevelShift      ....    0.2500
   Turn off err/grad.   ShiftErr        ....    0.0010
 Zerner damping         CNVZerner       .... off
 Static damping         CNVDamp         .... on
   Fraction old density DampFac         ....    0.7000
   Max. Damping (<1)    DampMax         ....    0.9800
   Min. Damping (>=0)   DampMin         ....    0.0000
   Turn off err/grad.   DampErr         ....    0.1000

SCF Procedure:
 Maximum # iterations   MaxIter         ....   125
 SCF integral mode      SCFMode         .... Direct
   Integral package                     .... SHARK and LIBINT hybrid scheme
 Reset frequency        DirectResetFreq ....    20
 Integral Threshold     Thresh          ....  2.500e-11 Eh
 Primitive CutOff       TCut            ....  2.500e-12 Eh

Convergence Tolerance:
 Convergence Check Mode ConvCheckMode   .... Total+1el-Energy
 Convergence forced     ConvForced      .... 0
 Energy Change          TolE            ....  1.000e-08 Eh
 1-El. energy change                    ....  1.000e-05 Eh
 Orbital Gradient       TolG            ....  1.000e-05
 Orbital Rotation angle TolX            ....  1.000e-05
 DIIS Error             TolErr          ....  5.000e-07

------------------------------
INITIAL GUESS: MODEL POTENTIAL
------------------------------
Loading Hartree-Fock densities                     ... done
Calculating cut-offs                               ... done
Initializing the effective Hamiltonian             ... done
Setting up the integral package (SHARK)            ... done
Starting the Coulomb interaction                   ... done (   0.2 sec)
Making the grid                                    ... done (   0.3 sec)
Mapping shells                                     ... done
Starting the XC term evaluation                    ... done (   0.2 sec)
  promolecular density results
     # of electrons  =     83.000669446
     EX              =    -69.958306163
     EC              =     -2.848405979
     EX+EC           =    -72.806712142
Transforming the Hamiltonian                       ... done (   0.0 sec)
Diagonalizing the Hamiltonian                      ... done (   0.0 sec)
Back transforming the eigenvectors                 ... done (   0.0 sec)
Now organizing SCF variables                       ... done
                      ------------------
                      INITIAL GUESS DONE (   0.6 sec)
                      ------------------
             **** ENERGY FILE WAS UPDATED (/kaggle/working/His-2/His_InterFrag.en.tmp) ****
Finished Guess after   0.9 sec
Maximum memory used throughout the entire GUESS-calculation: 13.2 MB


           ************************************************************
           *        Program running with 2 parallel MPI-processes     *
           *              working on a common directory               *
           ************************************************************

-------------------------------------------------------------------------------------------
                                      ORCA LEAN-SCF
                              memory conserving SCF solver
-------------------------------------------------------------------------------------------

----------------------------------------D-I-I-S--------------------------------------------
Iteration    Energy (Eh)           Delta-E    RMSDP     MaxDP     DIISErr   Damp  Time(sec)
-------------------------------------------------------------------------------------------
               ***  Starting incremental Fock matrix formation  ***
    1    -548.6066289665692466     0.00e+00  2.37e-03  4.79e-02  1.33e-01  0.700   5.5
Warning: op=0 Small HOMO/LUMO gap (   0.069) - skipping pre-diagonalization
         Will do a full diagonalization
    2    -548.7838768700859191    -1.77e-01  1.58e-03  2.64e-02  5.69e-02  0.700   3.0
                               ***Turning on AO-DIIS***
    3    -548.8502401750569106    -6.64e-02  6.00e-04  1.11e-02  1.99e-02  0.700   2.9
    4    -548.8900902093156446    -3.99e-02  8.89e-04  1.39e-02  9.05e-03  0.000   2.8
    5    -548.9787954188603862    -8.87e-02  2.39e-04  6.05e-03  3.49e-03  0.000   2.9
                              *** Initializing SOSCF ***
---------------------------------------S-O-S-C-F--------------------------------------
Iteration    Energy (Eh)           Delta-E    RMSDP     MaxDP     MaxGrad    Time(sec)
--------------------------------------------------------------------------------------
    6    -548.9793011803989202    -5.06e-04  9.45e-05  2.05e-03  1.08e-03     2.6
               *** Restarting incremental Fock matrix formation ***
    7    -548.9793428944821017    -4.17e-05  1.06e-04  1.79e-03  1.35e-03     5.5
    8    -548.9793655782649466    -2.27e-05  8.70e-05  1.62e-03  1.07e-03     4.2
    9    -548.9793741046458990    -8.53e-06  3.94e-05  5.51e-04  7.11e-04     4.1
   10    -548.9793783558244513    -4.25e-06  2.27e-05  3.20e-04  2.36e-04     3.9
   11    -548.9793794339904025    -1.08e-06  1.46e-05  2.23e-04  1.86e-04     3.7
   12    -548.9793800457895259    -6.12e-07  3.78e-06  7.82e-05  3.06e-05     3.5
   13    -548.9793800598134794    -1.40e-08  2.50e-06  3.75e-05  2.38e-05     3.1
   14    -548.9793801026058873    -4.28e-08  1.08e-06  2.31e-05  1.41e-05     3.0
   15    -548.9793801046445196    -2.04e-09  7.14e-07  1.39e-05  2.25e-05     2.5
                 **** Energy Check signals convergence ****

               *****************************************************
               *                     SUCCESS                       *
               *           SCF CONVERGED AFTER  15 CYCLES          *
               *****************************************************

Recomputing exchange energy using gridx3       ... done (    8.430 sec)
Old exchange energy                            :    -14.204539225 Eh
New exchange energy                            :    -14.204538935 Eh
Exchange energy change after final integration :      0.000000290 Eh
Total energy after final integration           :   -548.979379820 Eh
             **** ENERGY FILE WAS UPDATED (/kaggle/working/His-2/His_InterFrag.en.tmp) ****

----------------
TOTAL SCF ENERGY
----------------

Total Energy       :       -548.97937981998678 Eh          -14938.48838 eV

Components:
Nuclear Repulsion  :        633.95110852369328 Eh           17250.68667 eV
Electronic Energy  :      -1182.93048863335662 Eh          -32189.17506 eV
One Electron Energy:      -2005.24826237648290 Eh          -54565.57928 eV
Two Electron Energy:        822.31777374312617 Eh           22376.40422 eV

Virial components:
Potential Energy   :      -1094.59286878820922 Eh          -29785.38622 eV
Kinetic Energy     :        545.61348896822255 Eh           14846.89784 eV
Virial Ratio       :          2.00616900226959

DFT components:
N(Alpha)           :       41.999982150375 electrons
N(Beta)            :       40.999987967685 electrons
N(Total)           :       82.999970118060 electrons
E(X)               :      -56.461103525681 Eh       
E(C)               :       -3.352695063594 Eh       
E(XC)              :      -59.813798589274 Eh       

---------------
SCF CONVERGENCE
---------------

  Last Energy change         ...    2.0386e-09  Tolerance :   1.0000e-08
  Last MAX-Density change    ...    1.3874e-05  Tolerance :   1.0000e-07
  Last RMS-Density change    ...    7.1421e-07  Tolerance :   5.0000e-09
  Last DIIS Error            ...    1.0844e-03  Tolerance :   5.0000e-07
  Last Orbital Gradient      ...    2.2455e-05  Tolerance :   1.0000e-05
  Last Orbital Rotation      ...    3.1671e-05  Tolerance :   1.0000e-05


----------------------
UHF SPIN CONTAMINATION
----------------------

Warning: in a DFT calculation there is little theoretical justification to 
         calculate <S**2> as in Hartree-Fock theory. We will do it anyways
         but you should keep in mind that the values have only limited relevance

Expectation value of <S**2>     :     0.754520
Ideal value S*(S+1) for S=0.5   :     0.750000
Deviation                       :     0.004520

----------------
ORBITAL ENERGIES
----------------
                 SPIN UP ORBITALS
  NO   OCC          E(Eh)            E(eV) 
   0   1.0000     -19.196151      -522.3538 
   1   1.0000     -19.133843      -520.6583 
   2   1.0000     -14.340496      -390.2247 
   3   1.0000     -14.339593      -390.2001 
   4   1.0000     -14.319834      -389.6625 
   5   1.0000     -10.313750      -280.6514 
   6   1.0000     -10.226898      -278.2880 
   7   1.0000     -10.200992      -277.5831 
   8   1.0000     -10.199786      -277.5503 
   9   1.0000     -10.195022      -277.4206 
  10   1.0000     -10.192826      -277.3609 
  11   1.0000      -1.105935       -30.0940 
  12   1.0000      -1.010182       -27.4884 
  13   1.0000      -0.974005       -26.5040 
  14   1.0000      -0.898344       -24.4452 
  15   1.0000      -0.864561       -23.5259 
  16   1.0000      -0.778940       -21.1960 
  17   1.0000      -0.720720       -19.6118 
  18   1.0000      -0.673293       -18.3212 
  19   1.0000      -0.619871       -16.8675 
  20   1.0000      -0.591417       -16.0933 
  21   1.0000      -0.564427       -15.3588 
  22   1.0000      -0.528913       -14.3925 
  23   1.0000      -0.509030       -13.8514 
  24   1.0000      -0.482928       -13.1411 
  25   1.0000      -0.473756       -12.8916 
  26   1.0000      -0.463208       -12.6045 
  27   1.0000      -0.444390       -12.0925 
  28   1.0000      -0.434781       -11.8310 
  29   1.0000      -0.430147       -11.7049 
  30   1.0000      -0.423475       -11.5233 
  31   1.0000      -0.398647       -10.8477 
  32   1.0000      -0.387544       -10.5456 
  33   1.0000      -0.379731       -10.3330 
  34   1.0000      -0.365984        -9.9589 
  35   1.0000      -0.355580        -9.6758 
  36   1.0000      -0.317370        -8.6361 
  37   1.0000      -0.285035        -7.7562 
  38   1.0000      -0.271249        -7.3811 
  39   1.0000      -0.248767        -6.7693 
  40   1.0000      -0.227212        -6.1828 
  41   1.0000      -0.096823        -2.6347 
  42   0.0000       0.002181         0.0594 
  43   0.0000       0.045855         1.2478 
  44   0.0000       0.065249         1.7755 
  45   0.0000       0.076943         2.0937 
  46   0.0000       0.093495         2.5441 
  47   0.0000       0.120327         3.2743 
  48   0.0000       0.138916         3.7801 
  49   0.0000       0.146540         3.9875 
  50   0.0000       0.152070         4.1380 
  51   0.0000       0.161612         4.3977 
  52   0.0000       0.173184         4.7126 
  53   0.0000       0.183362         4.9895 
  54   0.0000       0.210690         5.7332 
  55   0.0000       0.227157         6.1813 
  56   0.0000       0.235327         6.4036 
  57   0.0000       0.246185         6.6990 
  58   0.0000       0.257944         7.0190 
  59   0.0000       0.268938         7.3182 
  60   0.0000       0.316430         8.6105 
  61   0.0000       0.331550         9.0219 
  62   0.0000       0.370319        10.0769 
  63   0.0000       0.391711        10.6590 
  64   0.0000       0.431842        11.7510 
  65   0.0000       0.504441        13.7265 
  66   0.0000       0.533058        14.5052 
  67   0.0000       0.537542        14.6273 
  68   0.0000       0.541443        14.7334 
  69   0.0000       0.567684        15.4475 
  70   0.0000       0.580344        15.7920 
  71   0.0000       0.598101        16.2752 
  72   0.0000       0.607930        16.5426 
  73   0.0000       0.613054        16.6821 
  74   0.0000       0.629873        17.1397 
  75   0.0000       0.632350        17.2071 
  76   0.0000       0.645548        17.5662 
  77   0.0000       0.657629        17.8950 
  78   0.0000       0.666944        18.1485 
  79   0.0000       0.688103        18.7242 
  80   0.0000       0.719710        19.5843 
  81   0.0000       0.736554        20.0427 
  82   0.0000       0.739983        20.1360 
  83   0.0000       0.751977        20.4623 
  84   0.0000       0.782954        21.3053 
  85   0.0000       0.793197        21.5840 
  86   0.0000       0.795155        21.6373 
  87   0.0000       0.818623        22.2759 
  88   0.0000       0.832972        22.6663 
  89   0.0000       0.839978        22.8570 
  90   0.0000       0.843991        22.9662 
  91   0.0000       0.863134        23.4871 
  92   0.0000       0.871749        23.7215 
  93   0.0000       0.885811        24.1041 
  94   0.0000       0.897603        24.4250 
  95   0.0000       0.907731        24.7006 
  96   0.0000       0.934697        25.4344 
  97   0.0000       0.939413        25.5627 
  98   0.0000       0.944971        25.7140 
  99   0.0000       0.959928        26.1210 
 100   0.0000       0.986127        26.8339 
 101   0.0000       0.999214        27.1900 
 102   0.0000       1.029452        28.0128 
 103   0.0000       1.051301        28.6074 
 104   0.0000       1.081647        29.4331 
 105   0.0000       1.086922        29.5767 
 106   0.0000       1.100009        29.9328 
 107   0.0000       1.109273        30.1849 
 108   0.0000       1.134545        30.8725 
 109   0.0000       1.156120        31.4596 
 110   0.0000       1.180509        32.1233 
 111   0.0000       1.220592        33.2140 
 112   0.0000       1.314132        35.7593 
 113   0.0000       1.346647        36.6441 
 114   0.0000       1.368759        37.2458 
 115   0.0000       1.389849        37.8197 
 116   0.0000       1.404216        38.2107 
 117   0.0000       1.425833        38.7989 
 118   0.0000       1.457726        39.6667 
 119   0.0000       1.460461        39.7412 
 120   0.0000       1.480326        40.2817 
 121   0.0000       1.573516        42.8175 
 122   0.0000       1.585378        43.1403 
 123   0.0000       1.629325        44.3362 
 124   0.0000       1.631814        44.4039 
 125   0.0000       1.681576        45.7580 
 126   0.0000       1.694590        46.1122 
 127   0.0000       1.717267        46.7292 
 128   0.0000       1.743622        47.4464 
 129   0.0000       1.760254        47.8990 
 130   0.0000       1.766042        48.0565 
 131   0.0000       1.789351        48.6907 
 132   0.0000       1.795567        48.8599 
 133   0.0000       1.847468        50.2721 
 134   0.0000       1.854747        50.4702 
 135   0.0000       1.871960        50.9386 
 136   0.0000       1.895703        51.5847 
 137   0.0000       1.906989        51.8918 
 138   0.0000       1.928925        52.4887 
 139   0.0000       1.939147        52.7669 
 140   0.0000       1.961981        53.3882 
 141   0.0000       1.981427        53.9174 
 142   0.0000       1.994091        54.2620 
 143   0.0000       2.021684        55.0128 
 144   0.0000       2.048193        55.7342 
 145   0.0000       2.072159        56.3863 
 146   0.0000       2.100234        57.1503 
 147   0.0000       2.102306        57.2067 
 148   0.0000       2.134431        58.0808 
 149   0.0000       2.147930        58.4481 
 150   0.0000       2.156144        58.6717 
 151   0.0000       2.201674        59.9106 
 152   0.0000       2.208036        60.0837 
 153   0.0000       2.237797        60.8936 
 154   0.0000       2.243760        61.0558 
 155   0.0000       2.275839        61.9287 
 156   0.0000       2.287428        62.2441 
 157   0.0000       2.306232        62.7558 
 158   0.0000       2.322465        63.1975 
 159   0.0000       2.323939        63.2376 
 160   0.0000       2.351609        63.9905 
 161   0.0000       2.357483        64.1504 
 162   0.0000       2.400843        65.3303 
 163   0.0000       2.423356        65.9429 
 164   0.0000       2.428095        66.0718 
 165   0.0000       2.485752        67.6407 
 166   0.0000       2.503788        68.1315 
 167   0.0000       2.520816        68.5949 
 168   0.0000       2.540903        69.1415 
 169   0.0000       2.550505        69.4028 
 170   0.0000       2.561086        69.6907 
 171   0.0000       2.570201        69.9387 
 172   0.0000       2.590559        70.4927 
 173   0.0000       2.632492        71.6337 
 174   0.0000       2.660302        72.3905 
 175   0.0000       2.674267        72.7705 
 176   0.0000       2.680403        72.9375 
 177   0.0000       2.707093        73.6637 
 178   0.0000       2.718499        73.9741 
 179   0.0000       2.742255        74.6206 
 180   0.0000       2.764526        75.2266 
 181   0.0000       2.792584        75.9901 
 182   0.0000       2.821338        76.7725 
 183   0.0000       2.850348        77.5619 
 184   0.0000       2.883321        78.4592 
 185   0.0000       2.894934        78.7752 
 186   0.0000       2.925303        79.6015 
 187   0.0000       2.935257        79.8724 
 188   0.0000       2.961748        80.5933 
 189   0.0000       2.986156        81.2574 
 190   0.0000       3.001381        81.6717 
 191   0.0000       3.081741        83.8584 
 192   0.0000       3.161286        86.0230 
 193   0.0000       3.217685        87.5576 
 194   0.0000       3.277671        89.1900 
 195   0.0000       3.289811        89.5203 
 196   0.0000       3.321141        90.3728 
 197   0.0000       3.358384        91.3863 
 198   0.0000       3.397540        92.4518 
 199   0.0000       3.445180        93.7481 
 200   0.0000       3.493473        95.0622 
 201   0.0000       3.534832        96.1877 
 202   0.0000       3.605372        98.1072 
 203   0.0000       3.663799        99.6970 

                 SPIN DOWN ORBITALS
  NO   OCC          E(Eh)            E(eV) 
   0   1.0000     -19.196140      -522.3535 
   1   1.0000     -19.133743      -520.6556 
   2   1.0000     -14.336236      -390.1088 
   3   1.0000     -14.335422      -390.0867 
   4   1.0000     -14.319835      -389.6625 
   5   1.0000     -10.313743      -280.6512 
   6   1.0000     -10.226887      -278.2878 
   7   1.0000     -10.200808      -277.5781 
   8   1.0000     -10.195059      -277.4216 
   9   1.0000     -10.192555      -277.3535 
  10   1.0000     -10.189061      -277.2584 
  11   1.0000      -1.105881       -30.0925 
  12   1.0000      -1.010045       -27.4847 
  13   1.0000      -0.967048       -26.3147 
  14   1.0000      -0.898247       -24.4425 
  15   1.0000      -0.857058       -23.3217 
  16   1.0000      -0.776849       -21.1391 
  17   1.0000      -0.717363       -19.5204 
  18   1.0000      -0.671750       -18.2792 
  19   1.0000      -0.608261       -16.5516 
  20   1.0000      -0.590637       -16.0720 
  21   1.0000      -0.561419       -15.2770 
  22   1.0000      -0.524205       -14.2644 
  23   1.0000      -0.508579       -13.8391 
  24   1.0000      -0.481601       -13.1050 
  25   1.0000      -0.473137       -12.8747 
  26   1.0000      -0.461947       -12.5702 
  27   1.0000      -0.440243       -11.9796 
  28   1.0000      -0.433386       -11.7930 
  29   1.0000      -0.425827       -11.5873 
  30   1.0000      -0.414000       -11.2655 
  31   1.0000      -0.396274       -10.7832 
  32   1.0000      -0.382517       -10.4088 
  33   1.0000      -0.378928       -10.3112 
  34   1.0000      -0.364851        -9.9281 
  35   1.0000      -0.345091        -9.3904 
  36   1.0000      -0.316519        -8.6129 
  37   1.0000      -0.271137        -7.3780 
  38   1.0000      -0.260905        -7.0996 
  39   1.0000      -0.248414        -6.7597 
  40   1.0000      -0.197625        -5.3776 
  41   0.0000       0.001371         0.0373 
  42   0.0000       0.021088         0.5738 
  43   0.0000       0.050170         1.3652 
  44   0.0000       0.066334         1.8050 
  45   0.0000       0.077444         2.1074 
  46   0.0000       0.096924         2.6374 
  47   0.0000       0.122993         3.3468 
  48   0.0000       0.139921         3.8074 
  49   0.0000       0.147088         4.0025 
  50   0.0000       0.154515         4.2046 
  51   0.0000       0.162520         4.4224 
  52   0.0000       0.179765         4.8916 
  53   0.0000       0.186349         5.0708 
  54   0.0000       0.214192         5.8285 
  55   0.0000       0.232262         6.3202 
  56   0.0000       0.237714         6.4685 
  57   0.0000       0.246717         6.7135 
  58   0.0000       0.262898         7.1538 
  59   0.0000       0.270888         7.3712 
  60   0.0000       0.327942         8.9238 
  61   0.0000       0.332007         9.0344 
  62   0.0000       0.370638        10.0856 
  63   0.0000       0.394745        10.7416 
  64   0.0000       0.435172        11.8416 
  65   0.0000       0.506068        13.7708 
  66   0.0000       0.535213        14.5639 
  67   0.0000       0.538947        14.6655 
  68   0.0000       0.545366        14.8402 
  69   0.0000       0.576391        15.6844 
  70   0.0000       0.593457        16.1488 
  71   0.0000       0.606656        16.5079 
  72   0.0000       0.613960        16.7067 
  73   0.0000       0.623426        16.9643 
  74   0.0000       0.633246        17.2315 
  75   0.0000       0.635914        17.3041 
  76   0.0000       0.649024        17.6608 
  77   0.0000       0.659032        17.9332 
  78   0.0000       0.671003        18.2589 
  79   0.0000       0.690766        18.7967 
  80   0.0000       0.721739        19.6395 
  81   0.0000       0.737588        20.0708 
  82   0.0000       0.741038        20.1647 
  83   0.0000       0.758538        20.6409 
  84   0.0000       0.787287        21.4232 
  85   0.0000       0.799217        21.7478 
  86   0.0000       0.802767        21.8444 
  87   0.0000       0.821228        22.3468 
  88   0.0000       0.835274        22.7290 
  89   0.0000       0.842370        22.9221 
  90   0.0000       0.847536        23.0626 
  91   0.0000       0.863887        23.5076 
  92   0.0000       0.873889        23.7797 
  93   0.0000       0.887606        24.1530 
  94   0.0000       0.899296        24.4711 
  95   0.0000       0.908961        24.7341 
  96   0.0000       0.936908        25.4946 
  97   0.0000       0.945591        25.7308 
  98   0.0000       0.951934        25.9034 
  99   0.0000       0.966370        26.2963 
 100   0.0000       0.989162        26.9165 
 101   0.0000       1.000210        27.2171 
 102   0.0000       1.030883        28.0517 
 103   0.0000       1.052927        28.6516 
 104   0.0000       1.082724        29.4624 
 105   0.0000       1.087752        29.5992 
 106   0.0000       1.102789        30.0084 
 107   0.0000       1.114306        30.3218 
 108   0.0000       1.137305        30.9476 
 109   0.0000       1.158444        31.5229 
 110   0.0000       1.185074        32.2475 
 111   0.0000       1.222250        33.2591 
 112   0.0000       1.316121        35.8135 
 113   0.0000       1.349134        36.7118 
 114   0.0000       1.375533        37.4302 
 115   0.0000       1.392468        37.8910 
 116   0.0000       1.407288        38.2942 
 117   0.0000       1.428189        38.8630 
 118   0.0000       1.458403        39.6852 
 119   0.0000       1.463293        39.8182 
 120   0.0000       1.482669        40.3455 
 121   0.0000       1.576011        42.8854 
 122   0.0000       1.586132        43.1608 
 123   0.0000       1.633249        44.4430 
 124   0.0000       1.640586        44.6426 
 125   0.0000       1.683811        45.8188 
 126   0.0000       1.696702        46.1696 
 127   0.0000       1.727081        46.9962 
 128   0.0000       1.744571        47.4722 
 129   0.0000       1.761546        47.9341 
 130   0.0000       1.772357        48.2283 
 131   0.0000       1.792855        48.7861 
 132   0.0000       1.801034        49.0086 
 133   0.0000       1.848545        50.3015 
 134   0.0000       1.855582        50.4929 
 135   0.0000       1.873587        50.9829 
 136   0.0000       1.900672        51.7199 
 137   0.0000       1.908823        51.9417 
 138   0.0000       1.931549        52.5601 
 139   0.0000       1.941407        52.8284 
 140   0.0000       1.965639        53.4877 
 141   0.0000       1.985261        54.0217 
 142   0.0000       1.996425        54.3255 
 143   0.0000       2.024045        55.0771 
 144   0.0000       2.057860        55.9972 
 145   0.0000       2.082569        56.6696 
 146   0.0000       2.103154        57.2297 
 147   0.0000       2.107726        57.3541 
 148   0.0000       2.140145        58.2363 
 149   0.0000       2.152730        58.5788 
 150   0.0000       2.166255        58.9468 
 151   0.0000       2.202877        59.9433 
 152   0.0000       2.212123        60.1949 
 153   0.0000       2.238713        60.9185 
 154   0.0000       2.256237        61.3953 
 155   0.0000       2.276729        61.9529 
 156   0.0000       2.287639        62.2498 
 157   0.0000       2.308720        62.8235 
 158   0.0000       2.326308        63.3021 
 159   0.0000       2.328102        63.3509 
 160   0.0000       2.352522        64.0154 
 161   0.0000       2.361965        64.2723 
 162   0.0000       2.407557        65.5130 
 163   0.0000       2.423622        65.9501 
 164   0.0000       2.429612        66.1131 
 165   0.0000       2.493450        67.8502 
 166   0.0000       2.511890        68.3520 
 167   0.0000       2.522552        68.6421 
 168   0.0000       2.542759        69.1920 
 169   0.0000       2.553799        69.4924 
 170   0.0000       2.562471        69.7284 
 171   0.0000       2.575741        70.0895 
 172   0.0000       2.593513        70.5731 
 173   0.0000       2.636094        71.7318 
 174   0.0000       2.664730        72.5110 
 175   0.0000       2.678631        72.8893 
 176   0.0000       2.687982        73.1437 
 177   0.0000       2.709094        73.7182 
 178   0.0000       2.728949        74.2585 
 179   0.0000       2.742779        74.6348 
 180   0.0000       2.769228        75.3545 
 181   0.0000       2.793322        76.0102 
 182   0.0000       2.821909        76.7881 
 183   0.0000       2.852887        77.6310 
 184   0.0000       2.884227        78.4838 
 185   0.0000       2.898180        78.8635 
 186   0.0000       2.928603        79.6913 
 187   0.0000       2.936227        79.8988 
 188   0.0000       2.964384        80.6650 
 189   0.0000       2.987843        81.3033 
 190   0.0000       3.005912        81.7950 
 191   0.0000       3.081935        83.8637 
 192   0.0000       3.161325        86.0240 
 193   0.0000       3.221049        87.6492 
 194   0.0000       3.283328        89.3439 
 195   0.0000       3.292450        89.5921 
 196   0.0000       3.321226        90.3752 
 197   0.0000       3.360832        91.4529 
 198   0.0000       3.397903        92.4616 
 199   0.0000       3.445246        93.7499 
 200   0.0000       3.493515        95.0634 
 201   0.0000       3.535023        96.1929 
 202   0.0000       3.613373        98.3249 
 203   0.0000       3.666692        99.7758 

                    ********************************
                    * MULLIKEN POPULATION ANALYSIS *
                    ********************************

--------------------------------------------
MULLIKEN ATOMIC CHARGES AND SPIN POPULATIONS
--------------------------------------------
   0 N :   -0.552914   -0.000016
   1 C :    0.003530    0.000166
   2 C :    0.514074    0.002413
   3 O :   -0.429430    0.003146
   4 C :   -0.244316   -0.000779
   5 C :    0.250451    0.007152
   6 N :   -0.518619    0.134728
   7 C :   -0.008531    0.014321
   8 C :    0.130417    0.666477
   9 N :   -0.486513    0.136951
  10 O :   -0.466473    0.000264
  11 H :    0.238662   -0.000043
  12 H :    0.235399    0.000046
  13 H :    0.098851    0.000366
  14 H :    0.108562   -0.000474
  15 H :    0.141716    0.004449
  16 H :    0.254554    0.004031
  17 H :    0.095158   -0.001823
  18 H :    0.061914    0.020213
  19 H :    0.251766    0.008498
  20 H :    0.321742   -0.000089
Sum of atomic charges         :   -0.0000000
Sum of atomic spin populations:    1.0000000

-----------------------------------------------------
MULLIKEN REDUCED ORBITAL CHARGES AND SPIN POPULATIONS
-----------------------------------------------------
CHARGE
  0 N s       :     3.629601  s :     3.629601
      pz      :     1.432356  p :     3.892466
      px      :     1.266779
      py      :     1.193332
      dz2     :     0.009416  d :     0.030847
      dxz     :     0.002971
      dyz     :     0.004947
      dx2y2   :     0.011103
      dxy     :     0.002409

  1 C s       :     3.173596  s :     3.173596
      pz      :     0.982547  p :     2.765723
      px      :     0.838056
      py      :     0.945121
      dz2     :     0.009428  d :     0.057151
      dxz     :     0.016070
      dyz     :     0.006582
      dx2y2   :     0.017257
      dxy     :     0.007814

  2 C s       :     2.996491  s :     2.996491
      pz      :     0.767326  p :     2.367198
      px      :     0.703249
      py      :     0.896624
      dz2     :     0.017464  d :     0.122237
      dxz     :     0.022759
      dyz     :     0.017577
      dx2y2   :     0.039586
      dxy     :     0.024850

  3 O s       :     3.862377  s :     3.862377
      pz      :     1.392150  p :     4.539153
      px      :     1.541397
      py      :     1.605607
      dz2     :     0.006514  d :     0.027900
      dxz     :     0.005339
      dyz     :     0.004729
      dx2y2   :     0.005014
      dxy     :     0.006304

  4 C s       :     3.234279  s :     3.234279
      pz      :     0.980930  p :     2.971952
      px      :     0.984828
      py      :     1.006194
      dz2     :     0.006592  d :     0.038085
      dxz     :     0.010599
      dyz     :     0.006258
      dx2y2   :     0.010549
      dxy     :     0.004087

  5 C s       :     3.061214  s :     3.061214
      pz      :     0.888376  p :     2.632737
      px      :     0.863335
      py      :     0.881026
      dz2     :     0.011266  d :     0.055598
      dxz     :     0.010722
      dyz     :     0.009573
      dx2y2   :     0.012935
      dxy     :     0.011101

  6 N s       :     3.586018  s :     3.586018
      pz      :     1.482909  p :     3.898274
      px      :     1.194104
      py      :     1.221262
      dz2     :     0.007849  d :     0.034326
      dxz     :     0.006703
      dyz     :     0.004536
      dx2y2   :     0.007734
      dxy     :     0.007505

  7 C s       :     3.104650  s :     3.104650
      pz      :     1.002287  p :     2.854996
      px      :     0.867053
      py      :     0.985655
      dz2     :     0.004615  d :     0.048885
      dxz     :     0.013860
      dyz     :     0.007044
      dx2y2   :     0.010094
      dxy     :     0.013272

  8 C s       :     3.109783  s :     3.109783
      pz      :     1.174319  p :     2.700856
      px      :     0.726937
      py      :     0.799600
      dz2     :     0.009513  d :     0.058944
      dxz     :     0.010783
      dyz     :     0.009297
      dx2y2   :     0.016866
      dxy     :     0.012485

  9 N s       :     3.569675  s :     3.569675
      pz      :     1.373609  p :     3.882403
      px      :     1.144648
      py      :     1.364147
      dz2     :     0.006701  d :     0.034434
      dxz     :     0.008739
      dyz     :     0.004940
      dx2y2   :     0.008854
      dxy     :     0.005200

 10 O s       :     3.824081  s :     3.824081
      pz      :     1.727228  p :     4.618938
      px      :     1.500495
      py      :     1.391215
      dz2     :     0.003539  d :     0.023453
      dxz     :     0.005380
      dyz     :     0.003390
      dx2y2   :     0.008512
      dxy     :     0.002633

 11 H s       :     0.737576  s :     0.737576
      pz      :     0.010917  p :     0.023762
      px      :     0.005944
      py      :     0.006901

 12 H s       :     0.740745  s :     0.740745
      pz      :     0.006320  p :     0.023856
      px      :     0.005683
      py      :     0.011853

 13 H s       :     0.890307  s :     0.890307
      pz      :     0.004651  p :     0.010842
      px      :     0.003931
      py      :     0.002260

 14 H s       :     0.879781  s :     0.879781
      pz      :     0.002553  p :     0.011657
      px      :     0.002407
      py      :     0.006697

 15 H s       :     0.846954  s :     0.846954
      pz      :     0.004555  p :     0.011330
      px      :     0.004386
      py      :     0.002389

 16 H s       :     0.720499  s :     0.720499
      pz      :     0.006767  p :     0.024947
      px      :     0.006964
      py      :     0.011216

 17 H s       :     0.892125  s :     0.892125
      pz      :     0.004688  p :     0.012718
      px      :     0.001672
      py      :     0.006358

 18 H s       :     0.925559  s :     0.925559
      pz      :     0.003899  p :     0.012527
      px      :     0.002809
      py      :     0.005819

 19 H s       :     0.723494  s :     0.723494
      pz      :     0.007017  p :     0.024740
      px      :     0.012060
      py      :     0.005663

 20 H s       :     0.640781  s :     0.640781
      pz      :     0.009633  p :     0.037477
      px      :     0.007366
      py      :     0.020478


SPIN
  0 N s       :    -0.000074  s :    -0.000074
      pz      :    -0.000044  p :     0.000053
      px      :     0.000123
      py      :    -0.000026
      dz2     :    -0.000001  d :     0.000004
      dxz     :    -0.000001
      dyz     :     0.000001
      dx2y2   :     0.000000
      dxy     :     0.000006

  1 C s       :     0.000074  s :     0.000074
      pz      :    -0.000633  p :     0.000089
      px      :     0.000219
      py      :     0.000503
      dz2     :     0.000008  d :     0.000003
      dxz     :     0.000007
      dyz     :     0.000003
      dx2y2   :    -0.000014
      dxy     :    -0.000002

  2 C s       :     0.000555  s :     0.000555
      pz      :     0.001593  p :     0.001831
      px      :     0.000342
      py      :    -0.000105
      dz2     :    -0.000001  d :     0.000027
      dxz     :    -0.000003
      dyz     :     0.000023
      dx2y2   :    -0.000006
      dxy     :     0.000013

  3 O s       :     0.000053  s :     0.000053
      pz      :     0.001947  p :     0.003120
      px      :     0.001043
      py      :     0.000130
      dz2     :    -0.000017  d :    -0.000026
      dxz     :     0.000004
      dyz     :    -0.000002
      dx2y2   :    -0.000002
      dxy     :    -0.000008

  4 C s       :    -0.000474  s :    -0.000474
      pz      :     0.001041  p :    -0.000482
      px      :    -0.001387
      py      :    -0.000137
      dz2     :    -0.000026  d :     0.000177
      dxz     :     0.000202
      dyz     :    -0.000006
      dx2y2   :     0.000083
      dxy     :    -0.000075

  5 C s       :     0.000250  s :     0.000250
      pz      :     0.013335  p :     0.005046
      px      :    -0.000455
      py      :    -0.007834
      dz2     :     0.001280  d :     0.001856
      dxz     :     0.000079
      dyz     :     0.000320
      dx2y2   :     0.000154
      dxy     :     0.000023

  6 N s       :     0.015888  s :     0.015888
      pz      :     0.088328  p :     0.117305
      px      :     0.002648
      py      :     0.026329
      dz2     :    -0.000335  d :     0.001535
      dxz     :     0.001828
      dyz     :    -0.000243
      dx2y2   :    -0.000007
      dxy     :     0.000293

  7 C s       :     0.000043  s :     0.000043
      pz      :     0.015651  p :     0.012706
      px      :    -0.003582
      py      :     0.000637
      dz2     :     0.000148  d :     0.001572
      dxz     :     0.001199
      dyz     :    -0.000012
      dx2y2   :    -0.000059
      dxy     :     0.000295

  8 C s       :     0.116951  s :     0.116951
      pz      :     0.498080  p :     0.550632
      px      :     0.014666
      py      :     0.037886
      dz2     :    -0.000322  d :    -0.001106
      dxz     :    -0.000277
      dyz     :    -0.000543
      dx2y2   :    -0.000084
      dxy     :     0.000119

  9 N s       :     0.017672  s :     0.017672
      pz      :     0.065716  p :     0.118048
      px      :     0.002054
      py      :     0.050277
      dz2     :     0.000786  d :     0.001231
      dxz     :    -0.000015
      dyz     :     0.000086
      dx2y2   :     0.000220
      dxy     :     0.000154

 10 O s       :     0.000024  s :     0.000024
      pz      :     0.000264  p :     0.000235
      px      :    -0.000065
      py      :     0.000035
      dz2     :     0.000009  d :     0.000006
      dxz     :    -0.000006
      dyz     :     0.000005
      dx2y2   :    -0.000001
      dxy     :    -0.000001

 11 H s       :    -0.000045  s :    -0.000045
      pz      :     0.000000  p :     0.000002
      px      :     0.000002
      py      :    -0.000001

 12 H s       :     0.000048  s :     0.000048
      pz      :    -0.000000  p :    -0.000002
      px      :    -0.000001
      py      :    -0.000000

 13 H s       :     0.000363  s :     0.000363
      pz      :    -0.000002  p :     0.000003
      px      :     0.000006
      py      :    -0.000001

 14 H s       :    -0.000467  s :    -0.000467
      pz      :     0.000001  p :    -0.000007
      px      :    -0.000008
      py      :     0.000001

 15 H s       :     0.004482  s :     0.004482
      pz      :    -0.000011  p :    -0.000032
      px      :    -0.000021
      py      :    -0.000000

 16 H s       :     0.003158  s :     0.003158
      pz      :     0.000843  p :     0.000873
      px      :     0.000014
      py      :     0.000016

 17 H s       :    -0.001918  s :    -0.001918
      pz      :     0.000086  p :     0.000095
      px      :    -0.000009
      py      :     0.000017

 18 H s       :     0.018576  s :     0.018576
      pz      :     0.001683  p :     0.001637
      px      :     0.000099
      py      :    -0.000145

 19 H s       :     0.007753  s :     0.007753
      pz      :     0.000582  p :     0.000746
      px      :     0.000015
      py      :     0.000149

 20 H s       :    -0.000089  s :    -0.000089
      pz      :     0.000001  p :     0.000001
      px      :    -0.000000
      py      :     0.000000


------------------------
MULLIKEN OVERLAP CHARGES
------------------------
B(  0-N ,  1-C ) :   0.6008 B(  0-N ,  2-C ) :  -0.0915 B(  0-N ,  4-C ) :  -0.0891 
B(  0-N , 11-H ) :   0.6670 B(  0-N , 12-H ) :   0.6669 B(  0-N , 13-H ) :  -0.0912 
B(  1-C ,  2-C ) :   0.5293 B(  1-C ,  3-O ) :  -0.1702 B(  1-C ,  4-C ) :   0.6375 
B(  1-C ,  5-C ) :  -0.0776 B(  1-C , 10-O ) :  -0.1613 B(  1-C , 11-H ) :  -0.0673 
B(  1-C , 12-H ) :  -0.0703 B(  1-C , 13-H ) :   0.7419 B(  1-C , 14-H ) :  -0.0766 
B(  1-C , 15-H ) :  -0.0856 B(  2-C ,  3-O ) :   1.2294 B(  2-C , 10-O ) :   0.5516 
B(  2-C , 13-H ) :  -0.1159 B(  3-O , 10-O ) :  -0.1654 B(  4-C ,  5-C ) :   0.6879 
B(  4-C ,  6-N ) :  -0.1166 B(  4-C ,  7-C ) :  -0.1265 B(  4-C , 13-H ) :  -0.0906 
B(  4-C , 14-H ) :   0.7460 B(  4-C , 15-H ) :   0.7107 B(  5-C ,  6-N ) :   0.6913 
B(  5-C ,  7-C ) :   1.2611 B(  5-C ,  8-C ) :  -0.1125 B(  5-C ,  9-N ) :  -0.0915 
B(  5-C , 16-H ) :  -0.0687 B(  5-C , 17-H ) :  -0.0747 B(  6-N ,  7-C ) :  -0.1516 
B(  6-N ,  8-C ) :   0.6156 B(  6-N ,  9-N ) :  -0.1030 B(  6-N , 16-H ) :   0.6830 
B(  6-N , 18-H ) :  -0.0911 B(  7-C ,  8-C ) :  -0.1481 B(  7-C ,  9-N ) :   0.6137 
B(  7-C , 17-H ) :   0.7549 B(  7-C , 19-H ) :  -0.0597 B(  8-C ,  9-N ) :   0.6496 
B(  8-C , 16-H ) :  -0.0568 B(  8-C , 18-H ) :   0.6890 B(  8-C , 19-H ) :  -0.0610 
B(  9-N , 17-H ) :  -0.0806 B(  9-N , 18-H ) :  -0.0935 B(  9-N , 19-H ) :   0.6770 
B( 10-O , 20-H ) :   0.5451 B( 11-H , 12-H ) :  -0.0649 B( 14-H , 15-H ) :  -0.0622 



                     *******************************
                     * LOEWDIN POPULATION ANALYSIS *
                     *******************************

-------------------------------------------
LOEWDIN ATOMIC CHARGES AND SPIN POPULATIONS
-------------------------------------------
   0 N :   -0.254076    0.000027
   1 C :   -0.038708    0.000378
   2 C :    0.134992    0.002219
   3 O :   -0.233333    0.003246
   4 C :   -0.110404   -0.000027
   5 C :   -0.019159    0.010498
   6 N :   -0.095970    0.158994
   7 C :   -0.085992    0.015306
   8 C :   -0.107801    0.594686
   9 N :   -0.099841    0.162228
  10 O :   -0.150932    0.000378
  11 H :    0.128563   -0.000016
  12 H :    0.126040    0.000040
  13 H :    0.059792    0.000313
  14 H :    0.079630   -0.000406
  15 H :    0.090310    0.003072
  16 H :    0.139960    0.007672
  17 H :    0.072038   -0.000660
  18 H :    0.040571    0.031342
  19 H :    0.139289    0.010728
  20 H :    0.185030   -0.000021

----------------------------------------------------
LOEWDIN REDUCED ORBITAL CHARGES AND SPIN POPULATIONS
----------------------------------------------------
CHARGE
  0 N s       :     3.217864  s :     3.217864
      pz      :     1.438123  p :     3.977360
      px      :     1.324364
      py      :     1.214873
      dz2     :     0.014964  d :     0.058852
      dxz     :     0.006603
      dyz     :     0.008103
      dx2y2   :     0.022673
      dxy     :     0.006511

  1 C s       :     2.884051  s :     2.884051
      pz      :     1.045995  p :     3.027370
      px      :     0.959879
      py      :     1.021497
      dz2     :     0.020321  d :     0.127287
      dxz     :     0.033378
      dyz     :     0.015960
      dx2y2   :     0.041486
      dxy     :     0.016141

  2 C s       :     2.857640  s :     2.857640
      pz      :     0.840641  p :     2.721299
      px      :     0.882067
      py      :     0.998592
      dz2     :     0.036839  d :     0.286069
      dxz     :     0.056391
      dyz     :     0.039719
      dx2y2   :     0.096280
      dxy     :     0.056840

  3 O s       :     3.562846  s :     3.562846
      pz      :     1.417787  p :     4.614831
      px      :     1.568514
      py      :     1.628530
      dz2     :     0.008859  d :     0.055657
      dxz     :     0.012354
      dyz     :     0.011138
      dx2y2   :     0.009415
      dxy     :     0.013890

  4 C s       :     2.889566  s :     2.889566
      pz      :     1.042319  p :     3.136861
      px      :     1.042594
      py      :     1.051948
      dz2     :     0.014373  d :     0.083977
      dxz     :     0.023053
      dyz     :     0.014825
      dx2y2   :     0.022905
      dxy     :     0.008821

  5 C s       :     2.861735  s :     2.861735
      pz      :     0.983923  p :     3.023560
      px      :     1.044447
      py      :     0.995191
      dz2     :     0.025467  d :     0.133864
      dxz     :     0.025170
      dyz     :     0.022881
      dx2y2   :     0.031987
      dxy     :     0.028359

  6 N s       :     3.110215  s :     3.110215
      pz      :     1.455735  p :     3.904875
      px      :     1.223125
      py      :     1.226015
      dz2     :     0.015785  d :     0.080879
      dxz     :     0.015452
      dyz     :     0.010422
      dx2y2   :     0.021228
      dxy     :     0.017993

  7 C s       :     2.889158  s :     2.889158
      pz      :     1.044355  p :     3.083622
      px      :     0.981129
      py      :     1.058138
[...]
  8 C      5.8696     6.0000     0.1304     3.5848     3.1868     0.3980
  9 N      7.4865     7.0000    -0.4865     3.1607     3.1328     0.0279
 10 O      8.4665     8.0000    -0.4665     2.0243     2.0243     0.0000
 11 H      0.7613     1.0000     0.2387     0.9185     0.9185     0.0000
 12 H      0.7646     1.0000     0.2354     0.9218     0.9218     0.0000
 13 H      0.9011     1.0000     0.0989     0.9509     0.9509     0.0000
 14 H      0.8914     1.0000     0.1086     0.9555     0.9555     0.0000
 15 H      0.8583     1.0000     0.1417     0.9529     0.9529     0.0000
 16 H      0.7454     1.0000     0.2546     0.9332     0.9331     0.0001
 17 H      0.9048     1.0000     0.0952     0.9632     0.9632     0.0000
 18 H      0.9381     1.0000     0.0619     0.9565     0.9555     0.0010
 19 H      0.7482     1.0000     0.2518     0.9204     0.9202     0.0001
 20 H      0.6783     1.0000     0.3217     0.9143     0.9143     0.0000

  Mayer bond orders larger than 0.100000
B(  0-N ,  1-C ) :   1.0125 B(  0-N , 11-H ) :   0.9097 B(  0-N , 12-H ) :   0.9068 
B(  1-C ,  2-C ) :   0.9141 B(  1-C ,  4-C ) :   0.9560 B(  1-C , 13-H ) :   0.9295 
B(  2-C ,  3-O ) :   1.9212 B(  2-C , 10-O ) :   1.0773 B(  4-C ,  5-C ) :   1.0115 
B(  4-C , 14-H ) :   0.9433 B(  4-C , 15-H ) :   0.9267 B(  5-C ,  6-N ) :   1.0468 
B(  5-C ,  7-C ) :   1.7051 B(  6-N ,  8-C ) :   1.0752 B(  6-N , 16-H ) :   0.8852 
B(  7-C ,  9-N ) :   1.0372 B(  7-C , 17-H ) :   0.9484 B(  8-C ,  9-N ) :   1.0876 
B(  8-C , 18-H ) :   0.9447 B(  9-N , 19-H ) :   0.8938 B( 10-O , 20-H ) :   0.8528 


-------
TIMINGS
-------

Total SCF time: 0 days 0 hours 1 min 4 sec 

Total time                  ....      64.937 sec
Sum of individual times     ....      62.531 sec  ( 96.3%)

SCF preparation             ....       0.367 sec  (  0.6%)
Fock matrix formation       ....      61.149 sec  ( 94.2%)
  Startup                   ....       0.010 sec  (  0.0% of F)
  Split-RI-J                ....       4.970 sec  (  8.1% of F)
  Chain of spheres X        ....      45.459 sec  ( 74.3% of F)
  XC integration            ....      12.922 sec  ( 21.1% of F)
    XC Preparation          ....       0.000 sec  (  0.0% of XC)
    Basis function eval.    ....       3.197 sec  ( 24.7% of XC)
    Density eval.           ....       3.505 sec  ( 27.1% of XC)
    XC-Functional eval.     ....       0.707 sec  (  5.5% of XC)
    XC-Potential eval.      ....       4.864 sec  ( 37.6% of XC)
Diagonalization             ....       0.000 sec  (  0.0%)
Density matrix formation    ....       0.078 sec  (  0.1%)
Total Energy calculation    ....       0.032 sec  (  0.0%)
Population analysis         ....       0.398 sec  (  0.6%)
Orbital Transformation      ....       0.056 sec  (  0.1%)
Orbital Orthonormalization  ....       0.000 sec  (  0.0%)
DIIS solution               ....       0.225 sec  (  0.3%)
  MO trafo                  ....       0.000 sec  (  0.0 % of DIIS)
  Orb grad                  ....       0.000 sec  (  0.0 % of DIIS)
  Energy W gradient         ....       0.000 sec  (  0.0 % of DIIS)
  DIIS error                ....       0.043 sec  ( 19.3 % of DIIS)
  DIIS work                 ....       0.144 sec  ( 64.0 % of DIIS)
  Form Q                    ....       0.000 sec  (  0.0 % of DIIS)
  Form QpQm                 ....       0.000 sec  (  0.0 % of DIIS)
  Exp/Cayley                ....       0.000 sec  (  0.0 % of DIIS)
  Orb update                ....       0.000 sec  (  0.0 % of DIIS)
  Wake-sleep                ....       0.007 sec  (  3.0 % of DIIS)
SOSCF solution              ....       0.227 sec  (  0.4%)
  MO trafo                  ....       0.072 sec  ( 31.6 % of SOSCF)
  Orb grad                  ....       0.008 sec  (  3.3 % of SOSCF)
  Rot update                ....       0.027 sec  ( 11.7 % of SOSCF)
  Step                      ....       0.113 sec  ( 49.5 % of SOSCF)
Finished LeanSCF after  65.0 sec

Maximum memory used throughout the entire LEANSCF-calculation: 24.6 MB


-------------------------------------------------------------------------------
                          DFT DISPERSION CORRECTION                            
                                                                               
                              DFTD3 V3.1  Rev 1                                
                          USING Becke-Johnson damping                          
-------------------------------------------------------------------------------
The B3LYP functional is recognized
Active option DFTDOPT                   ...         4   

molecular C6(AA) [au] = 4159.613206 


            DFT-D V3
 parameters
 s6 scaling factor         :     1.0000 
 a1 scaling factor         :     0.3981 
 s8 scaling factor         :     1.9889 
 a2 scaling factor         :     4.4211 
 ad hoc parameters k1-k3   :    16.0000     1.3333    -4.0000 

 Edisp/kcal,au: -22.680897147475  -0.036144306446 
 E6   /kcal   : -10.962290397 
 E8   /kcal   : -11.718606750 
 % E8         :  51.667298140 

-------------------------   ----------------
Dispersion correction           -0.036144306
-------------------------   ----------------


-------------------------   --------------------
FINAL SINGLE POINT ENERGY      -549.015524126432
-------------------------   --------------------



           ************************************************************
           *        Program running with 2 parallel MPI-processes     *
           *              working on a common directory               *
           ************************************************************
------------------------------------------------------------------------------
                            ORCA SCF RESPONSE CALCULATION
------------------------------------------------------------------------------

GBWName                                 ... /kaggle/working/His-2/His_InterFrag.gbw
Number of atoms                         ...     21
Number of basis functions               ...    204
Max core memory                         ...   3000 MB

Electric field perturbation             ... YES
Quadrupolar field perturbation          ...  NO
Magnetic field perturbation (no GIAO)   ...  NO
Magnetic field perturbation (with GIAO) ...  NO
Linear momentum (velocity) perturbation ...  NO
Spin-orbit coupling perturbation        ...  NO
Choice of electric origin               ... Center of mass
Position of electric origin             ...     4.449116    -3.625024     3.404096
Choice of magnetic origin               ... GIAO
Position of magnetic origin             ...     0.000000     0.000000     0.000000
Nuclear geometric perturbations         ...  NO (  63 perturbations)
Nucleus-orbit perturbations             ...  NO (   0 perturbations)
Spin-dipole/Fermi contact perturbations ...  NO (   0 perturbations)

Total number of real perturbations      ...      3
Total number of imaginary perturbations ...      0
Total number of triplet perturbations   ...      0
Total number of SOC perturbations       ...      0

Using XC Grid                  ... (/kaggle/working/His-2/His_InterFrag.grid_cpscf.tmp) 
Recalculating density on grid  ... (/kaggle/working/His-2/His_InterFrag.grho_cpscf0.tmp) done
Calculating the xc-kernel      ... (/kaggle/working/His-2/His_InterFrag.fxc_cpscf0.tmp) done

                                **********************
                                * REAL PERTURBATIONS *
                                **********************



-------------------
SHARK CP-SCF DRIVER
-------------------

Dimension of the orbital basis          ...    204
Dimension of the CPSCF-problem          ...  13487
Number of operators                     ...      2
Max. number of iterations               ...    128
Convergence Tolerance                   ... 1.0e-04
Number of perturbations                 ...      3
Perturbation type                       ... REAL

----------------------------
POPLE LINEAR EQUATION SOLVER
----------------------------

  ITERATION   0:   ||err||_max =   1.6346e+01 (   2.6 sec   0/  3 done)
  ITERATION   1:   ||err||_max =   1.2000e+00 (   2.3 sec   0/  3 done)
  ITERATION   2:   ||err||_max =   6.2722e-01 (   2.4 sec   0/  3 done)
  ITERATION   3:   ||err||_max =   2.9996e-01 (   2.3 sec   0/  3 done)
  ITERATION   4:   ||err||_max =   2.1854e-01 (   2.4 sec   0/  3 done)
  ITERATION   5:   ||err||_max =   9.6355e-02 (   2.3 sec   0/  3 done)
  ITERATION   6:   ||err||_max =   4.4137e-02 (   2.4 sec   0/  3 done)
  ITERATION   7:   ||err||_max =   2.1933e-02 (   2.4 sec   0/  3 done)
  ITERATION   8:   ||err||_max =   7.3410e-03 (   2.4 sec   0/  3 done)
  ITERATION   9:   ||err||_max =   3.1973e-03 (   2.4 sec   0/  3 done)
  ITERATION  10:   ||err||_max =   1.1036e-03 (   2.4 sec   0/  3 done)
  ITERATION  11:   ||err||_max =   3.7046e-04 (   2.4 sec   0/  3 done)
  ITERATION  12:   ||err||_max =   1.3913e-04 (   2.4 sec   1/  3 done)
  ITERATION  13:   ||err||_max =   5.1070e-05 (   2.0 sec   3/  3 done)

CP-SCF equations solved in  33.1 sec
Response densities calculated in   0.0 sec

Maximum memory used throughout the entire SCFRESP-calculation: 31.6 MB


           ************************************************************
           *        Program running with 2 parallel MPI-processes     *
           *              working on a common directory               *
           ************************************************************

------------------------------------------------------------------------------
                              ORCA PROPERTY CALCULATIONS
------------------------------------------------------------------------------

GBWName                                 ... /kaggle/working/His-2/His_InterFrag.gbw
Number of atoms                         ...     21
Number of basis functions               ...    204
Max core memory                         ...   3000 MB

Electric properties:
Dipole moment                           ... YES
Quadrupole moment                       ...  NO
Static polarizability (Dipole/Dipole)   ... YES
Static polarizability (Dipole/Quad.)    ...  NO
Static polarizability (Quad./Quad.)     ...  NO
Static polarizability (Velocity)        ...  NO
Static hyperpolarizability              ...  NO

Atomic electric properties:
Dipole moment                           ...  NO
Quadrupole moment                       ...  NO
Static polarizability                   ...  NO

Choice of electric origin               ... Center of mass
Position of electric origin             ...     4.449116    -3.625024     3.404096

General magnetic properties:
Magnetizability                         ...  NO

EPR properties:
g-Tensor (aka g-matrix)                 ...  NO
Zero-Field splitting spin-orbit         ...  NO
Zero-field splitting spin-spin          ...  NO
Hyperfine couplings                     ...  NO (   0 nuclei)
Quadrupole couplings                    ...  NO (   0 nuclei)
Contact density                         ...  NO (   0 nuclei)

NMR properties:
Chemical shifts                         ...  NO (   0 nuclei)
Spin-rotation constants                 ...  NO (   0 nuclei)
Spin-spin couplings                     ...  NO (   0 nuclei,    0 pairs)

Choice of magnetic origin               ... GIAO
Position of magnetic origin             ...     0.000000     0.000000     0.000000

Properties with geometric perturbations:
SCF Hessian                             ...  NO
IR spectrum                             ...  NO
VCD spectrum                            ...  NO
X-ray spectroscopy properties:
SCF XES/XAS/RIXS spectra                ...  NO

SCF SOC stabilization energy            ...  NO
Diagonal Born-Oppenheimer correction    ...  NO

-------------
DIPOLE MOMENT
-------------

Method             : SCF
Type of density    : Electron Density
Multiplicity       :   2
Irrep              :   0
Energy             :  -548.9793798199867751 Eh
Basis              : AO
                                X                 Y                 Z
Electronic contribution:      0.797594946      -3.583859235       1.028902153
Nuclear contribution   :     -0.156502609       3.801665650      -2.493116325
                        -----------------------------------------
Total Dipole Moment    :      0.641092337       0.217806414      -1.464214172
                        -----------------------------------------
Magnitude (a.u.)       :      1.613183858
Magnitude (Debye)      :      4.100387504



--------------------
Rotational spectrum 
--------------------
 
Rotational constants in cm-1:             0.066995             0.025140             0.021544 
Rotational constants in MHz :          2008.449695           753.667417           645.866843 

Dipole components along the rotational axes: 
x,y,z [a.u.] :    -0.107778     0.243829    -1.591004 
x,y,z [Debye]:    -0.273950     0.619765    -4.044010 

 

Dipole moment calculation done in   0.0 sec 


---------------------------------------------------
STATIC POLARIZABILITY TENSOR (Dipole/Dipole)
---------------------------------------------------

Method             : SCF
Type of density    : Electron Density
Type of derivative : Electric Field (Direction=X)
Multiplicity       :   2
Irrep              :   0
Basis              : AO

The raw cartesian tensor (atomic units):
     106.062848562         3.201849158        11.856476965  
       3.201849158        84.710660690       -10.056477731  
      11.856476965       -10.056477731        68.725446301  
diagonalized tensor: 
      60.651665731        89.334412656       109.512877165  

Orientation: 
      -0.257760111         0.100467637        -0.960971373  
       0.401627186         0.915724754        -0.011990749  
       0.878780592        -0.389042965        -0.276387848  

Isotropic polarizability :  86.49965


Polarizability tensor calculation done in   0.0 sec 

Maximum memory used throughout the entire PROP-calculation: 12.3 MB

--------------------------------
SUGGESTED CITATIONS FOR THIS RUN
--------------------------------

Below you find a list of papers that are relevant to this ORCA run
We neither can nor want to force you to cite these papers, but we appreciate if you do
You receive ORCA, which is the product of decades of hard work by many enthusiastic individuals, for free
The only thing we kindly ask in return is that you cite our papers,
We deeply appreciate it, if you show your appreciation for ORCA by not just citing the generic ORCA reference.

Please note that relegating all ORCA citations to the supporting information does *not* help us.
SI sections are not indexed - citations you put there will not count into any citation statistics
But we need these citations in order to attract the funding resources that allow us to do what we are doing

Therefore, if you are a happy ORCA user, please consider citing a few of the papers listed below in the main body of your paper

In addition to the list printed below, the program has created the file /kaggle/working/His-2/His_InterFrag.bibtex that contains the list in bibtex format
You can import this file easily into all common literature databanks and citation aid programs

It goes without saying that in many instances, there are alternative algorithms to achieve similar
results as the ones you have gotten from ORCA. It is, of course, also the case that in some instances
ORCA just re-implements algorithms worked out by others. We are fully aware of that and we are also
fully appreciative of our colleagues work. Hence this citation list should not be read as indicating
that the listed papers, which are focused on our own work, are the only ones worth citing. It simply
meant to make it easier for users to cite ORCA specific papers. It is not a substitute for doing your
own literature research and citing the relevant literature in a scientifically appropriate manner.

List of essential papers. We consider these as the minimum necessary citations

  1. Neese, F.
     Software update: the ORCA program system, version 6.0
     WIRES Comput. Molec. Sci. 2025 15(1), e70019
     doi.org/10.1002/wcms.70019

List of papers to cite with high priority. The work reported in these papers was absolutely
necessary for this run to complete.
Our perspective: the developers of density functionals and basis sets usually get cited in chemistry papers
Good! But without the algorithms to do something with them, the functionals or basis sets would not do anything.
Hence, in our opinion, the algorithm design and method developments papers are equally worthy of getting cited

  1. Neese, F.
     An improvement of the resolution of the identity approximation for the formation of the Coulomb matrix
     J. Comp. Chem. 2003 24(14), 1740-1747
     doi.org/10.1002/jcc.10318
  2. Neese, F.; Wennmohs, F.; Hansen, A.; Becker, U.
     Efficient, approximate and parallel Hartree-Fock and hybrid DFT calculations. A 'chain-of-spheres' algorithm for the Hartree-Fock exchange
     Chem. Phys. 2009 356(1-3), 98-109
     doi.org/10.1016/j.chemphys.2008.10.036
  3. Grimme, S.; Antony, J.; Ehrlich, S.; Krieg, H.
     A consistent and accurate ab initio parametrization of density functional dispersion correction (DFT-D) for the 94 elements H-Pu
     J. Chem. Phys. 2010 132 , 154104
     doi.org/10.1063/1.3382344
  4. Grimme, S.; Ehrlich, S.; Goerigk, L.
     Effect of the damping function in dispersion corrected density functional theory
     J. Comput. Chem. 2011 32(7), 1456-1465
     doi.org/10.1002/jcc.21759
  5. Helmich-Paris, B.; de Souza, B.; Neese, F.; Izsák, R.
     An improved chain of spheres for exchange algorithm
     J. Chem. Phys. 2021 155(10), 104109
     doi.org/10.1063/5.0058766
  6. Neese, F.
     The SHARK Integral Generation and Digestion System
     J. Comp. Chem. 2022 44(3), 381
     doi.org/10.1002/jcc.26942

List of suggested additional citations. These are papers that are important in the 'surrounding' of 
of this run, or papers that preceded the highly important papers. If you like your results we are grateful for a citation.

  1. Izsak, R.; Neese, F.
     An overlap fitted chain of spheres exchange method
     J. Chem. Phys. 2011 135 , 144105
     doi.org/10.1063/1.3646921
  2. Izsak, R.; Hansen, A.; Neese, F.
     The resolution of identity and chain of spheres approximations for the LPNO-CCSD singles Fock term
     Molec. Phys. 2012 110 , 2413-2417
     doi.org/10.1080/00268976.2012.687466
  3. Neese, F.
     The ORCA program system
     WIRES Comput. Molec. Sci. 2012 2(1), 73-78
     doi.org/10.1002/wcms.81
  4. Izsak, R.; Neese, F.; Klopper, W.
     Robust fitting techniques in the chain of spheres approximation to the Fock exchange: The role of the complementary space
     J. Chem. Phys. 2013 139 , 
     doi.org/10.1063/1.4819264
  5. Neese, F.
     Software update: the ORCA program system, version 4.0
     WIRES Comput. Molec. Sci. 2018 8(1), 1-6
     doi.org/10.1002/wcms.1327
  6. Neese, F.; Wennmohs, F.; Becker, U.; Riplinger, C.
     The ORCA quantum chemistry program package
     J. Chem. Phys. 2020 152(22), 224108
     doi.org/10.1063/5.0004608
  7. Neese, F.
     Software update: The ORCA program system—Version 5.0
     WIRES Comput. Molec. Sci. 2022 12(1), e1606
     doi.org/10.1002/wcms.1606

List of optional additional citations

  1. Neese, F.
     Approximate second-order SCF convergence for spin unrestricted wavefunctions
     Chem. Phys. Lett. 2000 325(1-3), 93-98
     doi.org/10.1016/s0009-2614(00)00662-x

Timings for individual modules:

Sum of individual times          ...      102.865 sec (=   1.714 min)
Startup calculation              ...        2.563 sec (=   0.043 min)   2.5 %
SCF iterations                   ...       66.087 sec (=   1.101 min)  64.2 %
SCF Response                     ...       33.791 sec (=   0.563 min)  32.8 %
Property calculations            ...        0.424 sec (=   0.007 min)   0.4 %
                             ****ORCA TERMINATED NORMALLY****
TOTAL RUN TIME: 0 days 0 hours 1 minutes 43 seconds 354 msec
