[Molden Format]
[Title]
 Molden file created by orca_2mkl for BaseName=/kaggle/working/Phe-F3-2/Phe-F3_InterFrag

[Atoms] AU
F    1   9          5.5182384165         3.2167768628        -1.9808506178 
F    2   9          3.6561060636        -4.7477290416         1.4555804519 
F    3   9          6.8864417115        -1.6190965646        -1.0002717269 
O    4   8         -3.5053928455        -1.4320344643        -3.1900410175 
O    5   8         -6.0604273005        -2.5770459850         0.0241601486 
N    6   7         -7.2125479710         2.6385187761         0.4402513871 
C    7   6         -2.7469002391         1.9177110882         1.9759921319 
C    8   6         -4.6765279403         1.7711307012        -0.2359360873 
C    9   6         -0.1442862595         1.0005362886         1.2654097522 
C   10   6          0.5699754171        -1.5006693175         1.7609620849 
C   11   6          1.5290567835         2.6063972113        -0.0131751706 
C   12   6         -4.8625922652        -0.9563526019        -1.0985828393 
C   13   6          3.8730560724         1.7046539153        -0.7600516305 
C   14   6          2.9268985431        -2.3525880943         0.9919002402 
C   15   6          4.6038301760        -0.7734006559        -0.2721262325 
H   16   1         -3.4948179381         0.7986662943         3.5470934321 
H   17   1         -2.6717741766         3.8959009717         2.5751335821 
H   18   1         -3.9639556789         2.9049040206        -1.8070751820 
H   19   1         -0.6912051280        -2.7933326999         2.7305200930 
H   20   1          1.0303448286         4.5510765812        -0.4276261268 
H   21   1         -7.0446798190         4.3986361534         1.2024459671 
H   22   1         -7.8472956410         1.5115541400         1.8690525300 
H   23   1         -3.6328775500        -3.2334669241        -3.5621639981 
[GTO]
  1 0
s   6 1.0 
     7001.7130900000         0.9926451524
     1051.3660900000         1.8312282616
      239.2856900000         2.9661117939
       67.3974453000         3.9092612383
       21.5199573000         3.3558966734
        7.4031013000         1.1407074825
s   3 1.0 
       20.8479528000        -0.7545105751
        4.8083083400        -0.3389211134
        1.3440698600         1.0041546559
p   3 1.0 
       20.8479528000         4.5483779701
        4.8083083400         3.5107202883
        1.3440698600         1.4903462703
s   1 1.0 
        0.3581513900         0.3299590716
p   1 1.0 
        0.3581513900         0.3949329681
d   1 1.0 
        0.8000000000         1.9292013661

  2 0
s   6 1.0 
     7001.7130900000         0.9926451524
     1051.3660900000         1.8312282616
      239.2856900000         2.9661117939
       67.3974453000         3.9092612383
       21.5199573000         3.3558966734
        7.4031013000         1.1407074825
s   3 1.0 
       20.8479528000        -0.7545105751
        4.8083083400        -0.3389211134
        1.3440698600         1.0041546559
p   3 1.0 
       20.8479528000         4.5483779701
        4.8083083400         3.5107202883
        1.3440698600         1.4903462703
s   1 1.0 
        0.3581513900         0.3299590716
p   1 1.0 
        0.3581513900         0.3949329681
d   1 1.0 
        0.8000000000         1.9292013661

  3 0
s   6 1.0 
     7001.7130900000         0.9926451524
     1051.3660900000         1.8312282616
      239.2856900000         2.9661117939
       67.3974453000         3.9092612383
       21.5199573000         3.3558966734
        7.4031013000         1.1407074825
s   3 1.0 
       20.8479528000        -0.7545105751
        4.8083083400        -0.3389211134
        1.3440698600         1.0041546559
p   3 1.0 
       20.8479528000         4.5483779701
        4.8083083400         3.5107202883
        1.3440698600         1.4903462703
s   1 1.0 
        0.3581513900         0.3299590716
p   1 1.0 
        0.3581513900         0.3949329681
d   1 1.0 
        0.8000000000         1.9292013661

  4 0
s   6 1.0 
     5484.6717000000         0.8317352088
      825.2349500000         1.5308074829
      188.0469600000         2.4771490916
       52.9645000000         3.2562802462
       16.8975700000         2.7928936336
        5.7996353000         0.9549376963
s   3 1.0 
       15.5396160000        -0.6179336976
        3.5999336000        -0.2757210088
        1.0137618000         0.8142076427
p   3 1.0 
       15.5396160000         3.1169455889
        3.5999336000         2.4014372483
        1.0137618000         1.0543605133
s   1 1.0 
        0.2700058000         0.2669561389
p   1 1.0 
        0.2700058000         0.2774319373
d   1 1.0 
        0.8000000000         1.9292013661

  5 0
s   6 1.0 
     5484.6717000000         0.8317352088
      825.2349500000         1.5308074829
      188.0469600000         2.4771490916
       52.9645000000         3.2562802462
       16.8975700000         2.7928936336
        5.7996353000         0.9549376963
s   3 1.0 
       15.5396160000        -0.6179336976
        3.5999336000        -0.2757210088
        1.0137618000         0.8142076427
p   3 1.0 
       15.5396160000         3.1169455889
        3.5999336000         2.4014372483
        1.0137618000         1.0543605133
s   1 1.0 
        0.2700058000         0.2669561389
p   1 1.0 
        0.2700058000         0.2774319373
d   1 1.0 
        0.8000000000         1.9292013661

  6 0
s   6 1.0 
     4173.5110000000         0.6790079572
      627.4579000000         1.2504643275
      142.9021000000         2.0203691378
       40.2343300000         2.6442129843
       12.8202100000         2.2650039968
        4.3904370000         0.7791872309
s   3 1.0 
       11.6263580000        -0.5158738103
        2.7162800000        -0.2550239186
        0.7722180000         0.6727344163
p   3 1.0 
       11.6263580000         2.0680595460
        2.7162800000         1.6100106206
        0.7722180000         0.7644899877
s   1 1.0 
        0.2120313000         0.2226947990
p   1 1.0 
        0.2120313000         0.2050879094
d   1 1.0 
        0.8000000000         1.9292013661

  7 0
s   6 1.0 
     3047.5249000000         0.5363343823
      457.3695100000         0.9894506076
      103.9486900000         1.5972822308
       29.2101550000         2.0791870615
        9.2866630000         1.7741742532
        3.1639270000         0.6125798260
s   3 1.0 
        7.8682724000        -0.3995563516
        1.8812885000        -0.1841552393
        0.5442493000         0.5163903794
p   3 1.0 
        7.8682724000         1.2960827175
        1.8812885000         0.9937536282
        0.5442493000         0.4959527138
s   1 1.0 
        0.1687144000         0.1876178721
p   1 1.0 
        0.1687144000         0.1541275509
d   1 1.0 
        0.8000000000         1.9292013661

  8 0
s   6 1.0 
     3047.5249000000         0.5363343823
      457.3695100000         0.9894506076
      103.9486900000         1.5972822308
       29.2101550000         2.0791870615
        9.2866630000         1.7741742532
        3.1639270000         0.6125798260
s   3 1.0 
        7.8682724000        -0.3995563516
        1.8812885000        -0.1841552393
        0.5442493000         0.5163903794
p   3 1.0 
        7.8682724000         1.2960827175
        1.8812885000         0.9937536282
        0.5442493000         0.4959527138
s   1 1.0 
        0.1687144000         0.1876178721
p   1 1.0 
        0.1687144000         0.1541275509
d   1 1.0 
        0.8000000000         1.9292013661

  9 0
s   6 1.0 
     3047.5249000000         0.5363343823
      457.3695100000         0.9894506076
      103.9486900000         1.5972822308
       29.2101550000         2.0791870615
        9.2866630000         1.7741742532
        3.1639270000         0.6125798260
s   3 1.0 
        7.8682724000        -0.3995563516
        1.8812885000        -0.1841552393
        0.5442493000         0.5163903794
p   3 1.0 
        7.8682724000         1.2960827175
        1.8812885000         0.9937536282
        0.5442493000         0.4959527138
s   1 1.0 
        0.1687144000         0.1876178721
p   1 1.0 
        0.1687144000         0.1541275509
d   1 1.0 
        0.8000000000         1.9292013661

 10 0
s   6 1.0 
     3047.5249000000         0.5363343823
      457.3695100000         0.9894506076
      103.9486900000         1.5972822308
       29.2101550000         2.0791870615
        9.2866630000         1.7741742532
        3.1639270000         0.6125798260
s   3 1.0 
        7.8682724000        -0.3995563516
        1.8812885000        -0.1841552393
        0.5442493000         0.5163903794
p   3 1.0 
        7.8682724000         1.2960827175
        1.8812885000         0.9937536282
        0.5442493000         0.4959527138
s   1 1.0 
        0.1687144000         0.1876178721
p   1 1.0 
        0.1687144000         0.1541275509
d   1 1.0 
        0.8000000000         1.9292013661

 11 0
s   6 1.0 
     3047.5249000000         0.5363343823
      457.3695100000         0.9894506076
      103.9486900000         1.5972822308
       29.2101550000         2.0791870615
        9.2866630000         1.7741742532
        3.1639270000         0.6125798260
s   3 1.0 
        7.8682724000        -0.3995563516
        1.8812885000        -0.1841552393
        0.5442493000         0.5163903794
p   3 1.0 
        7.8682724000         1.2960827175
        1.8812885000         0.9937536282
        0.5442493000         0.4959527138
s   1 1.0 
        0.1687144000         0.1876178721
p   1 1.0 
        0.1687144000         0.1541275509
d   1 1.0 
        0.8000000000         1.9292013661

 12 0
s   6 1.0 
     3047.5249000000         0.5363343823
      457.3695100000         0.9894506076
      103.9486900000         1.5972822308
       29.2101550000         2.0791870615
        9.2866630000         1.7741742532
        3.1639270000         0.6125798260
s   3 1.0 
        7.8682724000        -0.3995563516
        1.8812885000        -0.1841552393
        0.5442493000         0.5163903794
p   3 1.0 
        7.8682724000         1.2960827175
        1.8812885000         0.9937536282
        0.5442493000         0.4959527138
s   1 1.0 
        0.1687144000         0.1876178721
p   1 1.0 
        0.1687144000         0.1541275509
d   1 1.0 
        0.8000000000         1.9292013661

 13 0
s   6 1.0 
     3047.5249000000         0.5363343823
      457.3695100000         0.9894506076
      103.9486900000         1.5972822308
       29.2101550000         2.0791870615
        9.2866630000         1.7741742532
        3.1639270000         0.6125798260
s   3 1.0 
        7.8682724000        -0.3995563516
        1.8812885000        -0.1841552393
        0.5442493000         0.5163903794
p   3 1.0 
        7.8682724000         1.2960827175
        1.8812885000         0.9937536282
        0.5442493000         0.4959527138
s   1 1.0 
        0.1687144000         0.1876178721
p   1 1.0 
        0.1687144000         0.1541275509
d   1 1.0 
        0.8000000000         1.9292013661

 14 0
s   6 1.0 
     3047.5249000000         0.5363343823
      457.3695100000         0.9894506076
      103.9486900000         1.5972822308
       29.2101550000         2.0791870615
        9.2866630000         1.7741742532
        3.1639270000         0.6125798260
s   3 1.0 
        7.8682724000        -0.3995563516
        1.8812885000        -0.1841552393
        0.5442493000         0.5163903794
p   3 1.0 
        7.8682724000         1.2960827175
        1.8812885000         0.9937536282
        0.5442493000         0.4959527138
s   1 1.0 
        0.1687144000         0.1876178721
p   1 1.0 
        0.1687144000         0.1541275509
d   1 1.0 
        0.8000000000         1.9292013661

 15 0
s   6 1.0 
     3047.5249000000         0.5363343823
      457.3695100000         0.9894506076
      103.9486900000         1.5972822308
       29.2101550000         2.0791870615
        9.2866630000         1.7741742532
        3.1639270000         0.6125798260
s   3 1.0 
        7.8682724000        -0.3995563516
        1.8812885000        -0.1841552393
        0.5442493000         0.5163903794
p   3 1.0 
        7.8682724000         1.2960827175
        1.8812885000         0.9937536282
        0.5442493000         0.4959527138
s   1 1.0 
        0.1687144000         0.1876178721
p   1 1.0 
        0.1687144000         0.1541275509
d   1 1.0 
        0.8000000000         1.9292013661

 16 0
s   3 1.0 
       18.7311370000         0.2149354183
        2.8253937000         0.3645711272
        0.6401217000         0.4150514277
s   1 1.0 
        0.1612778000         0.1813806839
p   1 1.0 
        1.1000000000         1.6057611426

 17 0
s   3 1.0 
       18.7311370000         0.2149354183
        2.8253937000         0.3645711272
        0.6401217000         0.4150514277
s   1 1.0 
        0.1612778000         0.1813806839
p   1 1.0 
        1.1000000000         1.6057611426

 18 0
s   3 1.0 
       18.7311370000         0.2149354183
        2.8253937000         0.3645711272
        0.6401217000         0.4150514277
s   1 1.0 
        0.1612778000         0.1813806839
p   1 1.0 
        1.1000000000         1.6057611426

 19 0
s   3 1.0 
       18.7311370000         0.2149354183
        2.8253937000         0.3645711272
        0.6401217000         0.4150514277
s   1 1.0 
        0.1612778000         0.1813806839
p   1 1.0 
        1.1000000000         1.6057611426

 20 0
s   3 1.0 
       18.7311370000         0.2149354183
        2.8253937000         0.3645711272
        0.6401217000         0.4150514277
s   1 1.0 
        0.1612778000         0.1813806839
p   1 1.0 
        1.1000000000         1.6057611426

 21 0
s   3 1.0 
       18.7311370000         0.2149354183
        2.8253937000         0.3645711272
        0.6401217000         0.4150514277
s   1 1.0 
        0.1612778000         0.1813806839
p   1 1.0 
        1.1000000000         1.6057611426

 22 0
s   3 1.0 
       18.7311370000         0.2149354183
        2.8253937000         0.3645711272
        0.6401217000         0.4150514277
s   1 1.0 
        0.1612778000         0.1813806839
p   1 1.0 
        1.1000000000         1.6057611426

 23 0
s   3 1.0 
       18.7311370000         0.2149354183
        2.8253937000         0.3645711272
        0.6401217000         0.4150514277
s   1 1.0 
        0.1612778000         0.1813806839
p   1 1.0 
        1.1000000000         1.6057611426

[5D]
[7F]
[9G]
[MO]
 Sym=     1a
 Ene= -2.47155586082346E+01
 Spin= Alpha
 Occup= 2.000000
  1      -0.010954857964
  2      -0.000639541777
  3       0.000027745473
  4      -0.000048065206
  5       0.000003111685
  6       0.002014493845
  7      -0.000140248949
  8       0.000008601674
  9       0.000059993171
 10       0.000088817789
 11       0.000094643503
 12       0.000084123872
 13       0.000017186854
 14      -0.000012492080
 15      -0.009803243682
 16      -0.000606032474
 17       0.000042628066
 18       0.000022518827
 19      -0.000027397708
 20       0.001992561866
 21      -0.000110110358
 22       0.000086248523
 23       0.000024769844
 24       0.000101790703
 25       0.000067641493
 26       0.000075957494
 27       0.000049541815
 28       0.000038647993
 29       0.994909645727
 30       0.028693117558
 31      -0.001354036672
 32       0.000499907771
 33       0.000431541714
 34      -0.018786107866
 35       0.004613334847
 36      -0.001700275403
 37      -0.001470459326
 38       0.000276187920
 39       0.000356979883
 40      -0.000233151140
 41      -0.000615636524
 42       0.000489352716
 43       0.000001028191
 44       0.000016166472
 45       0.000001503958
 46       0.000004056743
 47       0.000000024526
 48      -0.000085978935
 49       0.000012275093
 50      -0.000028678527
 51      -0.000028027976
 52      -0.000002197447
 53       0.000001353210
 54      -0.000002676848
 55      -0.000004052798
 56       0.000000094519
 57      -0.000000836862
 58      -0.000009091987
 59       0.000004842290
 60      -0.000001118402
 61      -0.000000195146
 62       0.000082084331
 63      -0.000005820198
 64       0.000032328181
 65       0.000002932949
 66      -0.000001081534
 67       0.000003458432
 68       0.000001003955
 69      -0.000004269236
 70      -0.000000931328
 71      -0.000001009531
 72      -0.000017276215
 73      -0.000009585588
 74       0.000003880342
 75      -0.000001606831
 76      -0.000003821083
 77       0.000042719412
 78      -0.000019297143
 79      -0.000003028107
 80      -0.000001827828
 81       0.000002637966
 82      -0.000000544373
 83       0.000004127762
 84      -0.000000704601
 85      -0.000010720260
 86      -0.000059354935
 87       0.000051852571
 88      -0.000017819361
 89      -0.000024533430
 90       0.001758793308
 91       0.000644747781
 92      -0.000219606823
 93      -0.000013279788
 94      -0.000007550774
 95      -0.000006315733
 96      -0.000002399929
 97       0.000006586679
 98      -0.000008466214
 99      -0.000002406428
100      -0.000026338941
101       0.000007026584
102      -0.000001368569
103      -0.000012327248
104       0.000056561848
105      -0.000027499837
106      -0.000042409629
107       0.000042784454
108      -0.000007862521
109      -0.000001156971
110       0.000001073056
111       0.000000174269
112       0.000000131547
113      -0.000047255568
114      -0.000356069502
115      -0.000127602360
116       0.000044667861
117       0.000044085032
118       0.004660972552
119       0.003790361985
120      -0.001311032691
121      -0.001269096975
122      -0.000047108231
123      -0.000039877551
124      -0.000061697922
125      -0.000049150731
126       0.000014441273
127       0.000039463356
128       0.000147936908
129      -0.000196726677
130       0.000016991072
131       0.000080489041
132      -0.008273875988
133      -0.002988588874
134      -0.001484136774
135       0.001823940846
136       0.000015865021
137       0.000034459366
138       0.000033616384
139       0.000002252128
140      -0.000037007676
141       0.000039810677
142       0.000148154341
143      -0.000170629671
144       0.000119389170
145       0.000035897645
146      -0.008343122970
147      -0.001762012673
148       0.003363976809
149      -0.000314874347
150       0.000030788090
151       0.000002278920
152       0.000024981826
153       0.000042062821
154       0.000023324472
155       0.000001109705
156       0.000016462464
157       0.000000416285
158       0.000001097647
159       0.000004470910
160      -0.000052902928
161       0.000084122326
162      -0.000008327911
163      -0.000126893125
164       0.000002486514
165      -0.000002572630
166       0.000000083347
167       0.000003833900
168      -0.000002813112
169      -0.000058485489
170      -0.000572236919
171       0.000107255316
172      -0.000131533508
173      -0.000002723218
174       0.010088165960
175      -0.006104916520
176      -0.002836556375
177       0.003623048366
178       0.000000815241
179      -0.000087062829
180      -0.000132806533
181      -0.000042135671
182       0.000212838019
183      -0.000057882647
184      -0.000566470904
185       0.000150559198
186       0.000037367255
187      -0.000077469934
188       0.010066922449
189      -0.004011673084
190       0.006511868009
191      -0.000375452222
192      -0.000070543159
193       0.000068363289
194      -0.000085533238
195      -0.000226892301
196      -0.000067797591
197       0.000071764194
198       0.001793643435
199       0.000858026130
200      -0.000317474250
201      -0.000273975450
202      -0.003399761265
203       0.013334602505
204      -0.005009302714
205      -0.004243428676
206      -0.000361904343
207      -0.000403494167
208       0.000068233698
209       0.000443750607
210      -0.000409185033
211      -0.000030157446
212      -0.000158888680
213      -0.000011923867
214      -0.000002530062
215       0.000007956179
216      -0.000023884550
217      -0.000106602272
218      -0.000005576499
219       0.000009112251
220      -0.000000342647
221       0.000011430883
222       0.000001517787
223      -0.000000128003
224      -0.000000316876
225       0.000000217248
226      -0.000033286138
227      -0.000464473900
228       0.000062013852
229       0.000019665956
230      -0.000035869639
231      -0.000033729914
232      -0.000487863470
233       0.000040501388
234      -0.000059067751
235       0.000001321537
236      -0.000008482000
237       0.000046890110
238       0.000000962318
239      -0.000004730449
240      -0.000001096486
241      -0.000012463564
242       0.000037629032
243       0.000000695755
244       0.000002570223
245      -0.000002287459
246      -0.000005710757
247      -0.000015777957
248       0.000000444551
249      -0.000001857114
250      -0.000001548074
 Sym=     1a
 Ene= -2.47139281110060E+01
 Spin= Alpha
 Occup= 2.000000
  1      -0.994394505062
  2      -0.028640376177
  3       0.000958340623
  4       0.000881625098
  5      -0.000710901507
  6       0.018605339781
  7      -0.003257133811
  8      -0.003076640408
  9       0.002438513400
 10      -0.000055912829
 11      -0.000443016593
 12      -0.000435688438
 13       0.000048900816
 14       0.000702832171
 15       0.033524350876
 16       0.001084594143
 17       0.000009240762
 18       0.000074396540
 19      -0.000028987773
 20      -0.001000704707
 21      -0.000031585192
 22      -0.000430287553
 23       0.000157627057
 24       0.000020985022
 25      -0.000025362982
 26       0.000022731589
 27       0.000070396870
 28       0.000026441024
 29      -0.010593602437
 30       0.000003150917
 31       0.000024865495
 32      -0.000052209229
 33       0.000005833806
 34      -0.001472640369
 35       0.000020208963
 36       0.000023067206
 37      -0.000014408455
 38      -0.000098635651
 39      -0.000090371295
 40      -0.000031642236
 41       0.000033575268
 42      -0.000067605855
 43      -0.000001267994
 44      -0.000017884555
 45      -0.000001505297
 46      -0.000001411936
 47      -0.000000180138
 48       0.000093675903
 49      -0.000012774473
 50       0.000003548531
 51       0.000027530792
 52       0.000000227220
 53      -0.000002859083
 54      -0.000001972211
 55      -0.000002940762
 56      -0.000001134207
 57       0.000001146247
 58       0.000013327613
 59      -0.000002738823
 60       0.000001891412
 61       0.000001307746
 62      -0.000100616777
 63       0.000000265157
 64      -0.000056743238
 65      -0.000005210855
 66       0.000003261413
 67      -0.000006127432
 68       0.000003824913
 69       0.000004263759
 70      -0.000004053333
 71       0.000004285521
 72       0.000053837205
 73       0.000016131581
 74      -0.000002204558
 75       0.000000236052
 76      -0.000118795952
 77      -0.000136384740
 78      -0.000040560895
 79       0.000014158838
 80       0.000008381748
 81       0.000001807816
 82       0.000000189826
 83      -0.000015409575
 84      -0.000007397641
 85       0.000032806090
 86       0.000251477075
 87      -0.000026016308
 88       0.000024360011
 89       0.000005237598
 90      -0.001136428340
 91      -0.000669771159
 92      -0.000460191092
 93       0.000432864571
 94       0.000019093042
 95       0.000041126741
 96      -0.000019105337
 97      -0.000068339669
 98       0.000004188950
 99       0.000002959669
100       0.000057755739
101       0.000005880232
102      -0.000024978882
103       0.000020402753
104       0.000012263592
105       0.000107753057
106       0.000439289110
107       0.000003036513
108      -0.000006381991
109       0.000007101069
110       0.000003473672
111       0.000016881965
112       0.000001609292
113      -0.000043353343
114      -0.000210650449
115       0.000213725254
116       0.000004224484
117      -0.000094525650
118       0.007638760439
119       0.002034128688
120       0.001890231537
121      -0.001595246955
122      -0.000015771577
123      -0.000060974308
124      -0.000012321609
125       0.000072891344
126       0.000026341566
127       0.000025003949
128       0.000242518022
129       0.000079052834
130       0.000060621014
131      -0.000056885753
132      -0.001395359484
133      -0.001394352631
134      -0.000814732876
135       0.000908639335
136       0.000029349446
137       0.000014515097
138       0.000003007822
139      -0.000004163147
140       0.000039952436
141       0.000066389378
142       0.000520571696
143      -0.000108373513
144      -0.000124993664
145       0.000094033873
146      -0.009730052408
147       0.000383208251
148       0.007550885615
149      -0.002652157201
150       0.000126672271
151      -0.000031214397
152       0.000046603077
153       0.000165748273
154       0.000176887522
155      -0.000003154949
156      -0.000009065321
157       0.000009934398
158       0.000003913844
159       0.000009016132
160       0.000310400142
161      -0.000110140891
162       0.000155619485
163       0.000177079885
164      -0.000003733282
165       0.000002805478
166       0.000003788175
167      -0.000006320115
168       0.000007090956
169      -0.000063157811
170      -0.001750706023
171      -0.000591257597
172      -0.000570761765
173       0.000445085142
174       0.002221148553
175      -0.009739750297
176      -0.007909543447
177       0.006910036088
178       0.000202176936
179       0.000462891445
180       0.000446326644
181       0.000008140864
182      -0.000489166455
183      -0.000012536022
184       0.000140833652
185       0.000095331591
186       0.000105132577
187      -0.000075867791
188       0.006429974793
189       0.001053961835
190       0.001354065540
191      -0.000924526470
192      -0.000029270015
193       0.000012580734
194      -0.000022342568
195      -0.000057323707
196      -0.000030936393
197       0.000045858018
198       0.000471598047
199      -0.000039561911
200      -0.000127856509
201       0.000058136847
202      -0.007766449681
203       0.005969591998
204       0.000577650287
205      -0.002831459794
206       0.000074049846
207       0.000064764141
208      -0.000097969358
209      -0.000163663686
210       0.000191806423
211      -0.000002589450
212      -0.000144337133
213       0.000047090441
214      -0.000012925436
215       0.000007690489
216       0.000096363136
217       0.000248700732
218       0.000012442598
219       0.000007084417
220      -0.000020816227
221      -0.000034777020
222      -0.000088321700
223       0.000006643023
224      -0.000014793402
225      -0.000004597367
226      -0.000106668939
227      -0.000562127080
228       0.000004520202
229      -0.000012719583
230       0.000000307072
231      -0.000343237674
232      -0.002169035570
233      -0.000020464436
234      -0.000073861353
235       0.000033387384
236       0.000027593001
237      -0.000033334004
238      -0.000001697451
239       0.000003048895
240       0.000001280514
241       0.000019125927
242      -0.000066549173
243       0.000003652041
244      -0.000003303060
245       0.000004887714
246      -0.000005908012
247       0.000027839328
248      -0.000003842386
249      -0.000000878337
250       0.000003051302
 Sym=     1a
 Ene= -2.47137397082868E+01
 Spin= Alpha
 Occup= 2.000000
  1       0.033404936973
  2       0.000843212893
  3      -0.000040194014
  4       0.000009885702
  5       0.000014862777
  6      -0.000252696882
  7       0.000059779968
  8      -0.000177319251
  9       0.000030019185
 10       0.000007264840
 11       0.000001600203
 12      -0.000009303098
 13      -0.000010087833
 14       0.000022671556
 15       0.994402471816
 16       0.028633474158
 17      -0.000426532077
 18       0.001393029807
 19      -0.000271203808
 20      -0.018583698806
 21       0.001420073950
 22      -0.004788111790
 23       0.000949922578
 24       0.000348564834
 25      -0.000181991466
 26       0.000238917517
 27       0.000696513630
 28       0.000426106361
 29       0.010139084536
 30      -0.000037177329
 31      -0.000043038894
 32      -0.000023541674
 33       0.000027941250
 34       0.001592167954
 35      -0.000014366350
 36       0.000031819465
 37      -0.000009382101
 38       0.000099926637
 39       0.000105670801
 40       0.000036456953
 41      -0.000046549854
 42       0.000054929979
 43       0.000002178497
 44       0.000029646402
 45       0.000005261590
 46       0.000001845794
 47       0.000002294785
 48      -0.000147146371
 49       0.000017464828
 50      -0.000036392346
 51      -0.000057082007
 52      -0.000004450438
 53       0.000003213854
 54      -0.000001660946
 55      -0.000002824618
 56       0.000006475547
 57      -0.000002506223
 58      -0.000028438470
 59       0.000005308824
 60      -0.000001398651
 61       0.000005629919
 62       0.000176634913
 63       0.000014000929
 64       0.000063134325
 65      -0.000031253510
 66      -0.000004015771
 67      -0.000007021405
 68      -0.000000549076
 69      -0.000008133280
 70       0.000004492869
 71      -0.000005719239
 72      -0.000063313535
 73      -0.000012335487
 74       0.000007641961
 75      -0.000005012189
 76       0.000201587103
 77       0.000134148981
 78      -0.000125749854
 79       0.000006277197
 80      -0.000008135774
 81       0.000000340913
 82       0.000000401474
 83       0.000006313695
 84      -0.000017247435
 85      -0.000033756465
 86      -0.000252804172
 87       0.000035072897
 88       0.000005644279
 89      -0.000020809989
 90       0.001174945452
 91       0.000432096510
 92      -0.000835127405
 93       0.000122394339
 94      -0.000029092408
 95      -0.000011629947
 96       0.000013849306
 97       0.000032129051
 98      -0.000076327487
 99       0.000003528507
100      -0.000001957322
101      -0.000022666037
102      -0.000015088111
103      -0.000011397764
104      -0.000248732251
105       0.000146252096
106       0.000218808764
107      -0.000039526424
108       0.000005290663
109      -0.000000562616
110       0.000008745563
111      -0.000016027181
112       0.000017494793
113       0.000047694316