[Molden Format]
[Title]
 Molden file created by orca_2mkl for BaseName=/kaggle/working/Ser-2/Ser_InterFrag

[Atoms] AU
O    1   8          3.5632675981         1.9816008391        -0.5541357326 
O    2   8         -1.8023395283         2.7450445280         1.4827811699 
O    3   8         -2.9397165554         0.3512660732        -1.8561551492 
N    4   7         -0.2860081606        -3.7999142224         0.5186958087 
C    5   6          0.4161951735        -1.1546434548         0.8775982652 
C    6   6          2.8439754706        -0.6069932623        -0.6277613525 
C    7   6         -1.6198600139         0.6815391788         0.0080823587 
H    8   1          0.7877720232        -0.8098837087         2.8807627692 
H    9   1          4.3419670461        -1.8493672529         0.0873771570 
H   10   1          2.5166295508        -1.0682640732        -2.6191245168 
H   11   1         -0.9624564173        -3.9813732847        -1.2770939288 
H   12   1         -1.7816337991        -4.1908229705         1.6655951658 
H   13   1          3.9001112815         2.4076603830         1.1940461344 
H   14   1         -3.0857356938         3.8549506063         0.7613914463 
[GTO]
  1 0
s   6 1.0 
     5484.6717000000         0.8317352088
      825.2349500000         1.5308074829
      188.0469600000         2.4771490916
       52.9645000000         3.2562802462
       16.8975700000         2.7928936336
        5.7996353000         0.9549376963
s   3 1.0 
       15.5396160000        -0.6179336976
        3.5999336000        -0.2757210088
        1.0137618000         0.8142076427
p   3 1.0 
       15.5396160000         3.1169455889
        3.5999336000         2.4014372483
        1.0137618000         1.0543605133
s   1 1.0 
        0.2700058000         0.2669561389
p   1 1.0 
        0.2700058000         0.2774319373
d   1 1.0 
        0.8000000000         1.9292013661

  2 0
s   6 1.0 
     5484.6717000000         0.8317352088
      825.2349500000         1.5308074829
      188.0469600000         2.4771490916
       52.9645000000         3.2562802462
       16.8975700000         2.7928936336
        5.7996353000         0.9549376963
s   3 1.0 
       15.5396160000        -0.6179336976
        3.5999336000        -0.2757210088
        1.0137618000         0.8142076427
p   3 1.0 
       15.5396160000         3.1169455889
        3.5999336000         2.4014372483
        1.0137618000         1.0543605133
s   1 1.0 
        0.2700058000         0.2669561389
p   1 1.0 
        0.2700058000         0.2774319373
d   1 1.0 
        0.8000000000         1.9292013661

  3 0
s   6 1.0 
     5484.6717000000         0.8317352088
      825.2349500000         1.5308074829
      188.0469600000         2.4771490916
       52.9645000000         3.2562802462
       16.8975700000         2.7928936336
        5.7996353000         0.9549376963
s   3 1.0 
       15.5396160000        -0.6179336976
        3.5999336000        -0.2757210088
        1.0137618000         0.8142076427
p   3 1.0 
       15.5396160000         3.1169455889
        3.5999336000         2.4014372483
        1.0137618000         1.0543605133
s   1 1.0 
        0.2700058000         0.2669561389
p   1 1.0 
        0.2700058000         0.2774319373
d   1 1.0 
        0.8000000000         1.9292013661

  4 0
s   6 1.0 
     4173.5110000000         0.6790079572
      627.4579000000         1.2504643275
      142.9021000000         2.0203691378
       40.2343300000         2.6442129843
       12.8202100000         2.2650039968
        4.3904370000         0.7791872309
s   3 1.0 
       11.6263580000        -0.5158738103
        2.7162800000        -0.2550239186
        0.7722180000         0.6727344163
p   3 1.0 
       11.6263580000         2.0680595460
        2.7162800000         1.6100106206
        0.7722180000         0.7644899877
s   1 1.0 
        0.2120313000         0.2226947990
p   1 1.0 
        0.2120313000         0.2050879094
d   1 1.0 
        0.8000000000         1.9292013661

  5 0
s   6 1.0 
     3047.5249000000         0.5363343823
      457.3695100000         0.9894506076
      103.9486900000         1.5972822308
       29.2101550000         2.0791870615
        9.2866630000         1.7741742532
        3.1639270000         0.6125798260
s   3 1.0 
        7.8682724000        -0.3995563516
        1.8812885000        -0.1841552393
        0.5442493000         0.5163903794
p   3 1.0 
        7.8682724000         1.2960827175
        1.8812885000         0.9937536282
        0.5442493000         0.4959527138
s   1 1.0 
        0.1687144000         0.1876178721
p   1 1.0 
        0.1687144000         0.1541275509
d   1 1.0 
        0.8000000000         1.9292013661

  6 0
s   6 1.0 
     3047.5249000000         0.5363343823
      457.3695100000         0.9894506076
      103.9486900000         1.5972822308
       29.2101550000         2.0791870615
        9.2866630000         1.7741742532
        3.1639270000         0.6125798260
s   3 1.0 
        7.8682724000        -0.3995563516
        1.8812885000        -0.1841552393
        0.5442493000         0.5163903794
p   3 1.0 
        7.8682724000         1.2960827175
        1.8812885000         0.9937536282
        0.5442493000         0.4959527138
s   1 1.0 
        0.1687144000         0.1876178721
p   1 1.0 
        0.1687144000         0.1541275509
d   1 1.0 
        0.8000000000         1.9292013661

  7 0
s   6 1.0 
     3047.5249000000         0.5363343823
      457.3695100000         0.9894506076
      103.9486900000         1.5972822308
       29.2101550000         2.0791870615
        9.2866630000         1.7741742532
        3.1639270000         0.6125798260
s   3 1.0 
        7.8682724000        -0.3995563516
        1.8812885000        -0.1841552393
        0.5442493000         0.5163903794
p   3 1.0 
        7.8682724000         1.2960827175
        1.8812885000         0.9937536282
        0.5442493000         0.4959527138
s   1 1.0 
        0.1687144000         0.1876178721
p   1 1.0 
        0.1687144000         0.1541275509
d   1 1.0 
        0.8000000000         1.9292013661

  8 0
s   3 1.0 
       18.7311370000         0.2149354183
        2.8253937000         0.3645711272
        0.6401217000         0.4150514277
s   1 1.0 
        0.1612778000         0.1813806839
p   1 1.0 
        1.1000000000         1.6057611426

  9 0
s   3 1.0 
       18.7311370000         0.2149354183
        2.8253937000         0.3645711272
        0.6401217000         0.4150514277
s   1 1.0 
        0.1612778000         0.1813806839
p   1 1.0 
        1.1000000000         1.6057611426

 10 0
s   3 1.0 
       18.7311370000         0.2149354183
        2.8253937000         0.3645711272
        0.6401217000         0.4150514277
s   1 1.0 
        0.1612778000         0.1813806839
p   1 1.0 
        1.1000000000         1.6057611426

 11 0
s   3 1.0 
       18.7311370000         0.2149354183
        2.8253937000         0.3645711272
        0.6401217000         0.4150514277
s   1 1.0 
        0.1612778000         0.1813806839
p   1 1.0 
        1.1000000000         1.6057611426

 12 0
s   3 1.0 
       18.7311370000         0.2149354183
        2.8253937000         0.3645711272
        0.6401217000         0.4150514277
s   1 1.0 
        0.1612778000         0.1813806839
p   1 1.0 
        1.1000000000         1.6057611426

 13 0
s   3 1.0 
       18.7311370000         0.2149354183
        2.8253937000         0.3645711272
        0.6401217000         0.4150514277
s   1 1.0 
        0.1612778000         0.1813806839
p   1 1.0 
        1.1000000000         1.6057611426

 14 0
s   3 1.0 
       18.7311370000         0.2149354183
        2.8253937000         0.3645711272
        0.6401217000         0.4150514277
s   1 1.0 
        0.1612778000         0.1813806839
p   1 1.0 
        1.1000000000         1.6057611426

[5D]
[7F]
[9G]
[MO]
 Sym=     1a
 Ene= -1.91956731575002E+01
 Spin= Alpha
 Occup= 2.000000
  1       0.000234213927
  2       0.000224045352
  3      -0.000089811123
  4      -0.000013440999
  5       0.000010036041
  6      -0.000296211637
  7       0.000223122867
  8      -0.000091881010
  9      -0.000162253470
 10       0.000032329954
 11       0.000061979042
 12       0.000003802791
 13      -0.000092982600
 14       0.000027528552
 15       0.995098804499
 16       0.030259050279
 17      -0.001066212491
 18      -0.000394239545
 19      -0.001672526757
 20      -0.021421674097
 21      -0.000158022271
 22       0.005408494717
 23       0.004291334428
 24      -0.000281969593
 25       0.000311883147
 26      -0.000891164541
 27       0.000417362812
 28      -0.000506892944
 29      -0.000548412013
 30      -0.000567696559
 31      -0.000116603601
 32       0.000097218423
 33      -0.000072084382
 34       0.002546293023
 35       0.001323553880
 36      -0.001920348361
 37       0.000082016589
 38      -0.000129819690
 39       0.000217476653
 40      -0.000358471631
 41       0.000165118141
 42      -0.000324819541
 43      -0.000027115130
 44      -0.000344757642
 45       0.000072065800
 46      -0.000135579216
 47      -0.000015191945
 48      -0.000286005515
 49      -0.000878200132
 50       0.000008673164
 51       0.000602300898
 52      -0.000031356447
 53       0.000052734718
 54       0.000106410370
 55      -0.000009024305
 56      -0.000125902748
 57      -0.000066161615
 58      -0.000945882565
 59       0.000106839709
 60      -0.000157176806
 61       0.000248449995
 62       0.002963079160
 63       0.000151449898
 64      -0.001109644815
 65      -0.004220192890
 66       0.000169151943
 67       0.000151415646
 68      -0.000017120479
 69       0.000208523509
 70       0.000164277501
 71       0.000057805609
 72       0.000470213299
 73       0.000105626719
 74       0.000111477674
 75      -0.000058100773
 76      -0.003070965031
 77       0.001205450968
 78       0.000337855008
 79       0.000249712200
 80       0.000100982187
 81       0.000044258618
 82      -0.000009016874
 83      -0.000055053792
 84      -0.000089113980
 85       0.000038472217
 86       0.000002436823
 87      -0.000189103532
 88       0.000581398094
 89       0.000418655653
 90       0.007497231568
 91      -0.000629000157
 92       0.009195597093
 93       0.006863012045
 94      -0.000154268656
 95       0.000125698999
 96      -0.000212602151
 97      -0.000027284823
 98      -0.000331063530
 99       0.000095333068
100       0.001523183704
101       0.000041802627
102      -0.000090032978
103       0.000016438682
104       0.000051075098
105       0.000025131610
106      -0.000019303750
107      -0.000031629375
108      -0.000013816293
109       0.000107369829
110       0.000803808706
111      -0.000032146286
112       0.000064016264
113       0.000023633043
114      -0.000117889302
115       0.000348313196
116       0.000005346642
117       0.000022676940
118      -0.000009094966
119      -0.000189669111
120      -0.000352962807
121       0.000006036547
122      -0.000008274283
123       0.000023310382
124       0.000075037381
125       0.000046935355
126      -0.000047644595
127      -0.000012516980
128      -0.000007284527
129      -0.000459936269
130       0.000404881671
131      -0.001254838403
132       0.000862350896
133      -0.000887611835
 Sym=     1a
 Ene= -1.91438599199818E+01
 Spin= Alpha
 Occup= 2.000000
  1       0.995071471480
  2       0.029576639277
  3      -0.000155126742
  4      -0.001199180224
  5       0.001762464648
  6      -0.017545384004
  7       0.001734726567
  8       0.005515499428
  9      -0.000433211112
 10       0.001047427138
 11       0.000231849676
 12       0.000370611272
 13       0.000566355313
 14      -0.000327461212
 15      -0.000196436020
 16       0.000406675853
 17       0.000011231741
 18      -0.000029141911
 19       0.000042059481
 20      -0.002286317100
 21      -0.000289247779
 22       0.000834837987
 23       0.000292431345
 24       0.000039572237
 25       0.000040989629
 26      -0.000049406659
 27       0.000045035323
 28       0.000049743595
 29      -0.001952264806
 30      -0.000531908209
 31       0.000024142475
 32       0.000048225041
 33      -0.000009097844
 34       0.002666348112
 35       0.000515852704
 36      -0.000257457118
 37       0.000640484587
 38       0.000032299953
 39       0.000053218925
 40      -0.000043817146
 41       0.000032516262
 42      -0.000041000894
 43      -0.000045488458
 44      -0.000558504354
 45      -0.000125847741
 46      -0.000100675678
 47       0.000045733588
 48       0.001203764496
 49       0.000831748995
 50       0.001134870657
 51      -0.000337710641
 52      -0.000052845107
 53       0.000054413696
 54       0.000013421670
 55      -0.000126559296
 56       0.000064713359
 57       0.000067948200
 58       0.000129238989
 59      -0.000195181758
 60      -0.000050049568
 61       0.000185212746
 62      -0.003843100104
 63      -0.000662103082
 64      -0.000923227783
 65       0.000039840770
 66       0.000108922865
 67       0.000116189928
 68       0.000055955001
 69       0.000109952543
 70      -0.000173459331
 71      -0.000151038035
 72      -0.000910984012
 73       0.000336845005
 74       0.000719684229
 75       0.000068145895
 76       0.010920949104
 77       0.000445023454
 78       0.005615790516
 79       0.000511681523
 80      -0.000073464376
 81       0.000019708814
 82       0.000117985190
 83      -0.000121222543
 84       0.000054894825
 85      -0.000005328985
 86      -0.000123176153
 87      -0.000064737244
 88      -0.000095166417
 89       0.000084886018
 90       0.000399967666
 91       0.001269830894
 92       0.001729821865
 93       0.002766712172
 94      -0.000034691219
 95      -0.000051878331
 96       0.000117521292
 97      -0.000224646196
 98      -0.000107544708
 99       0.000280284578
100      -0.000134846760
101      -0.000013429854
102      -0.000064878449
103       0.000090959579
104      -0.000515724889
105      -0.000277867646
106      -0.000095347708
107      -0.000416403319
108      -0.000048047606
109      -0.000638926197
110      -0.000677486668
111      -0.000033596837
112      -0.000317821727
113      -0.000071853271
114      -0.000268624502
115       0.000397827076
116      -0.000060352891
117      -0.000011643576
118       0.000037400075
119       0.000052145645
120       0.000401147491
121       0.000036903791
122      -0.000068460397
123      -0.000055927704
124      -0.000695789494
125       0.000824394614
126       0.000262320799
127       0.000189170196
128       0.001883902890
129       0.000059166888
130      -0.000118460148
131       0.000013988124
132      -0.000055996233
133      -0.000003838404
 Sym=     1a
 Ene= -1.91350379215687E+01
 Spin= Alpha
 Occup= 2.000000
  1       0.001888335047
  2      -0.000431163441
  3       0.000044587030
  4       0.000022243459
  5       0.000038761146
  6       0.002223200545
  7      -0.000617428746
  8      -0.000780663729
  9      -0.000027857057
 10      -0.000001493708
 11       0.000016162510
 12       0.000045511163
 13       0.000015936691
 14       0.000089963516
 15       0.000503637811
 16      -0.000575196451
 17      -0.000125781601
 18       0.000217328854
 19      -0.000035017519
 20       0.003120056941
 21       0.001730843687
 22      -0.001767497159
 23       0.000910454997
 24      -0.000335215173
 25      -0.000155178374
 26      -0.000159073382
 27      -0.000138678879
 28      -0.000351567305
 29       0.995191352123
 30       0.030732715207
 31       0.001294227699
 32       0.000337817299
 33       0.001834869017
 34      -0.026129989231
 35      -0.004517036116
 36      -0.001135270112
 37      -0.006247498357
 38      -0.000163704187
 39      -0.000288500419
 40      -0.000080378978
 41      -0.000106925651
 42      -0.000077869089
 43       0.000028048885
 44       0.000261011822
 45      -0.000095912234
 46       0.000047606181
 47       0.000005773182
 48       0.000525852920
 49       0.001088176922
 50       0.000093894282
 51       0.000146689059
 52       0.000023131844
 53      -0.000048841429
 54      -0.000010442353
 55       0.000056513303
 56       0.000137075968
 57      -0.000090215104
 58      -0.000947245458
 59       0.000260260126
 60      -0.000224075546
 61       0.000005777880
 62       0.006323271552
 63      -0.000700159649
 64       0.005200558265
 65       0.001934744672
 66      -0.000131034653
 67      -0.000358796898
 68       0.000196416479
 69      -0.000266597926
 70      -0.000091555799
 71       0.000089601188
 72       0.000730205702
 73      -0.000173647979
 74      -0.000029633703
 75      -0.000055269388
 76      -0.002849319978
 77       0.001362819812
 78      -0.002348754425
 79      -0.000456813957
 80      -0.000017917919
 81       0.000083693649
 82      -0.000088785315
 83       0.000031531791
 84       0.000010396818
 85       0.000280146972
 86       0.000608697538
 87      -0.000182152584
 88       0.000075688656
 89      -0.000059883984
 90       0.007493299684
 91      -0.008512009910
 92      -0.002079828373
 93      -0.012488247869
 94      -0.000458855636
 95      -0.000590024315
 96      -0.000231673509
 97      -0.000195576607
 98      -0.000262939986
 99      -0.000586068484
100      -0.000970115540
101      -0.000103407507
102      -0.000093734360
103      -0.000008673279
104      -0.000051052424
105      -0.000580986710
106       0.000006770109
107       0.000037177859
108       0.000119892023
109       0.000274799741
110      -0.000207399304
111      -0.000058119877
112       0.000124867272
113      -0.000001549073
114       0.000055608233
115       0.000347706028
116      -0.000000303613
117      -0.000048391181
118       0.000087259269
119       0.000245636958
120       0.000063773785
121      -0.000043954501
122      -0.000003581096
123      -0.000012331095
124      -0.000158494030
125       0.000178723191
126       0.000046740110
127       0.000019863029
128       0.000046868521
129       0.000128141696
130       0.000124454022
131      -0.000004715806
132       0.000144702660
133       0.000094560509
 Sym=     1a
 Ene= -1.43200967142017E+01
 Spin= Alpha
 Occup= 2.000000
  1      -0.000022538958
  2      -0.000473841118
  3       0.000109659509
  4       0.000084138938
  5       0.000009245542
  6       0.001592905285
  7      -0.000688801242
  8      -0.000859080805
  9      -0.000056070306
 10      -0.000041198073
 11      -0.000041238223
 12       0.000005235285
 13      -0.000030180427
 14       0.000119635621
 15      -0.000025260051
 16      -0.000414311554
 17      -0.000079009866
 18       0.000025571746
 19       0.000008783551
 20       0.001942148683
 21       0.000365336569
 22      -0.000796243063
 23      -0.000368329593
 24      -0.000022502417
 25      -0.000002920550
 26       0.000094916307
 27      -0.000030323155
 28      -0.000002015564
 29       0.000018055646
 30       0.000252076805
 31       0.000037615374
 32       0.000003073093
 33      -0.000085664362
 34      -0.001451224886
 35      -0.000568415704
 36       0.000372170932
 37      -0.000074639861
 38       0.000039294845
 39      -0.000010842930
 40       0.000075637781
 41      -0.000045006966
 42       0.000088362795
 43       0.995149401738
 44       0.032728637814
 45      -0.002146526763
 46       0.001184476749
 47      -0.000519920073
 48      -0.020637561482
 49       0.000556583484
 50      -0.005484634366
 51      -0.000016493340
 52       0.000913730234
 53      -0.000256776160
 54      -0.000118677547
 55       0.000855758267
 56       0.000234618382
 57      -0.000048034421
 58      -0.000986339715
 59       0.000009766184
 60      -0.000127094521
 61       0.000064444102
 62       0.009373806587
 63      -0.001541496204
 64      -0.004094425457
 65      -0.000248188630
 66       0.000242366668
 67      -0.000005068179
 68      -0.000063291796
 69       0.000365949630
 70      -0.000060308776
 71       0.000001290688
 72      -0.000349633201
 73       0.000106426673
 74       0.000096108097
 75      -0.000118760404
 76      -0.000940646608
 77       0.000426425852
 78      -0.001489341143
 79      -0.000021983806
 80       0.000047374851
 81       0.000039341008
 82       0.000064772620
 83       0.000010742900
 84      -0.000090121670
 85      -0.000028107899
 86      -0.000677851511
 87      -0.000176888904
 88       0.000338328142
 89      -0.000127841169
 90      -0.000358616524
 91       0.000056544103
 92      -0.001543317410
 93      -0.001715490600
 94      -0.000030060102
 95       0.000119450964
 96      -0.000028887553
 97       0.000147302244
 98       0.000165782102
 99      -0.000573383194
100      -0.000521908377
101       0.000081973996
102       0.000178648381
103       0.000097781977
104      -0.000195241739
105      -0.000475731968
106       0.000106867284
107       0.000090312304
108       0.000008209759
109       0.000002694767
110      -0.000280590536
111       0.000051122142
112       0.000146114915
113      -0.000074530754
114      -0.000708628263
115       0.002270356226
116      -0.000741968556
117       0.000065114102
118      -0.001802372612
119      -0.000811928488
120       0.002140306954
121      -0.001631104868
122      -0.000132170600
123       0.001172358483
124      -0.000168123893
125       0.000576502125
126       0.000010755943
127      -0.000007639535
128      -0.000023292702
129      -0.000009965271
130       0.000291071249
131      -0.000006006170
132       0.000003924778
133       0.000022688617
 Sym=     1a
 Ene= -1.03127413935440E+01
 Spin= Alpha
 Occup= 2.000000
  1       0.000008740273
  2      -0.000054789448
  3       0.000156944843
  4      -0.000024844874
  5      -0.000058708563
  6      -0.000790955337
  7       0.000048896670
  8       0.000622010388
  9       0.000438853963
 10      -0.000005158134
 11      -0.000076046855
 12      -0.000015752347
 13       0.000079131926
 14      -0.000128321307
 15       0.000141222744
 16       0.001056590126
 17      -0.000178505390
 18       0.000469340858
 19       0.000222326034
 20      -0.004366098350
 21       0.001567399853
 22       0.002299228769
 23       0.003414745747
 24      -0.000130378296
 25      -0.000259689771
 26      -0.001835275367
 27       0.001167384932
 28       0.000250649807
 29      -0.000009118710
 30       0.000786698082
 31      -0.000720151077
 32       0.000015074091
 33      -0.000782318788
 34      -0.007354805652
 35      -0.001678149755
 36      -0.002291030828
 37      -0.004402085423
 38      -0.001043986183
 39      -0.001479743781
 40      -0.000659727074
 41      -0.000325149320
 42      -0.000339011848
 43      -0.000038393528
 44      -0.000658642965
 45       0.000039405840
 46      -0.000242368546
 47       0.000039627899
 48       0.001356500548
 49       0.000146785440
 50       0.000934930647
 51      -0.000491618046
 52      -0.000092530521
 53       0.000156535308
 54      -0.000090954992
 55       0.000026306650
 56      -0.000071086823
 57       0.000885850943
 58      -0.000713715719
 59       0.000418984152
 60      -0.000250794227
 61       0.000144036431
 62       0.006060546679
 63      -0.003833574743
 64       0.002967736232
 65       0.000605904763
 66       0.000448539068
 67      -0.000224622442
 68       0.000362480608
 69      -0.000057454675
 70       0.000655061918
 71      -0.000345901124
 72      -0.001218042001
 73       0.000381443269
 74      -0.000175210715
 75       0.000030901041
 76       0.003554985727
 77      -0.002674331270
 78       0.001575028085
 79      -0.000531680404
 80      -0.000113163877
 81      -0.000021055352
 82      -0.000060607378
 83       0.000022457619
 84       0.000025282993
 85       0.995151274643
 86       0.037022947525
 87      -0.000975988035
 88       0.001097478076
 89      -0.000575603284
 90      -0.011821133752
 91      -0.008210107638
 92       0.005666846246
 93      -0.003987984578
 94       0.000674433712
 95       0.001507277078
 96       0.001363360813
 97      -0.000276329469
 98      -0.000254727726
 99      -0.000501698297
100       0.000028067627
101      -0.000047007842
102       0.000144025447
103       0.000041941977
104       0.000052568110
105       0.001580374821
106      -0.000084819802
107       0.000018713285
108      -0.000013627976
109      -0.000397245806
110      -0.000581577977
111       0.000131617790
112      -0.000133773752
113       0.000017589651
114      -0.000335421049
115       0.000172896063
116      -0.000004039267
117       0.000009565329
118      -0.000011075399
119      -0.000178865228
120       0.000289771910
121       0.000068041463
122      -0.000107576815
123      -0.000013355692
124      -0.000172177970
125      -0.000234561505
126       0.000104962671
127       0.000022532349
128       0.000008849406
129       0.000649101424
130       0.000124274293
131       0.000093195446
132      -0.000275791626
133      -0.000080073478
 Sym=     1a
 Ene= -1.02315161762544E+01
 Spin= Alpha
 Occup= 2.000000
  1      -0.000067521093
  2      -0.000360601357
  3      -0.000049860988
  4      -0.000259068036
  5      -0.000066432627
  6      -0.000842873560
  7       0.000079813767
  8      -0.000828337931
  9       0.000199163891
 10      -0.000805392510
 11      -0.000016867845
 12       0.000032103087
 13      -0.001295205916
 14       0.000666326505
 15      -0.000016251684
 16      -0.000254131063
 17      -0.000109024364
 18       0.000021946404
 19       0.000004290887
 20       0.000907673368
 21       0.000796490685
 22      -0.000563468951
 23      -0.000282445187
 24      -0.000023909168
 25      -0.000099263846
 26       0.000056829791
 27      -0.000040371005
 28      -0.000138166774
 29      -0.000021544862
 30      -0.000349959166
 31      -0.000061665195
 32       0.000028837324
 33       0.000018589504
 34       0.001698789421
 35       0.001031760145
 36      -0.000231717774
 37       0.000319002254
 38      -0.000075819883
 39       0.000107917022
 40      -0.000084127427
 41       0.000118542068
 42      -0.000000464252
 43       0.000040506798
 44       0.000596848751
 45       0.000219981067
 46       0.000163875882
 47      -0.000147725323
 48      -0.001675612319
 49      -0.000964405510
 50      -0.001275600515
 51       0.001205563220
 52      -0.000029873343
 53       0.000115329916
 54       0.000060441091
 55       0.000027151096
 56      -0.000138422002
 57      -0.010311845668
 58       0.000011391781
 59       0.000137390358
 60       0.000126225525
 61      -0.000201011748
 62      -0.002629440918
 63      -0.004742667925
 64      -0.000800075992
 65       0.000333289636
 66      -0.000253777174
 67      -0.000522767362
 68      -0.000142016120
 69       0.000382798058
 70       0.000114454913
 71      -0.995168020172
 72      -0.038096559179
 73      -0.000108043827
 74      -0.000542873069
 75       0.000175634167
 76       0.027308792118
 77      -0.003434393254
 78      -0.001066307011
 79       0.001072357232
 80      -0.000105928789
 81      -0.000619545596
 82      -0.000063207359
 83       0.000354046123
 84       0.000212292742
 85      -0.000073123683
 86       0.001364079239
 87       0.000467377672
 88      -0.000189352482
 89       0.000029471602
 90      -0.006261635936
 91      -0.002460632339
 92       0.001513685233
 93       0.000476268485
 94      -0.000043148571
 95      -0.000000157407
 96      -0.000153696107
 97      -0.000041484116
 98       0.000039297161
 99       0.000486419517
100      -0.000084782979
101      -0.000045722730
102      -0.000007889938
103      -0.000061880680
104       0.001043021690
105      -0.003888970964
106      -0.000965570364
107       0.000953077326
108      -0.000593044653
109       0.000907956831
110      -0.004908987003
111       0.000461064989
112       0.000346981830
113       0.001304907449
114       0.000339008147
115       0.000420982879
116       0.000123694466
117       0.000089132235
118      -0.000012866894
119      -0.000131701975
120      -0.001108328648
121      -0.000048217870
122      -0.000045586298
123      -0.000017911454
124       0.000049145245
125      -0.000953383358
126       0.000104197475
127       0.000397272078
128      -0.000087223688
129       0.000036435294
130       0.000063044930
131      -0.000013642009
132       0.000024570673
133       0.000052208407
 Sym=     1a
 Ene= -1.02245848760786E+01
 Spin= Alpha
 Occup= 2.000000
  1       0.000002083369
  2       0.000264728069
  3      -0.000053526641
  4      -0.000125345885
  5       0.000091339251
  6       0.000103030426
  7      -0.000295226201
  8      -0.000141702366
  9      -0.000480071881
 10      -0.000075718377
 11       0.000228006862
 12       0.000006914118
 13      -0.000089923525
 14       0.000030069816
 15       0.000029249489
 16       0.000720341333
 17       0.000139016639
 18      -0.000259958678
 19      -0.000107990688
 20      -0.002154227014
 21      -0.000237600972
 22       0.001092594243
 23       0.000891936317
 24      -0.000001523441
 25      -0.000132851126
 26      -0.000121392940
 27      -0.000011155066
 28       0.000136079149
 29       0.000018499119
 30       0.000489199159
 31       0.000140476193
 32      -0.000027717845
 33       0.000089599283
 34      -0.000397486855
 35       0.000071029921
 36      -0.000929336153
 37      -0.000428761145
 38      -0.000032538528
 39      -0.000164663441
 40      -0.000331929103
 41       0.000107723863
 42       0.000092823224
 43      -0.000001619459
 44       0.000501422365
 45       0.000212564771
 46       0.000408144428
 47       0.000080797326
 48      -0.006460298917
 49      -0.000761999185
 50      -0.002778529469
 51       0.000230590713
 52      -0.000582856902
 53       0.000129266623
 54       0.000389093039
 55      -0.000854904389
 56       0.000383482943
 57      -0.995440411881
 58      -0.040173992121
 59       0.000181478343
 60       0.000073838215
 61      -0.000122311525
 62       0.042081737937
 63      -0.000968160200
 64       0.001289228068
 65      -0.005807984970
 66      -0.000754073588