
                                 *****************
                                 * O   R   C   A *
                                 *****************

                                            #,                                       
                                            ###                                      
                                            ####                                     
                                            #####                                    
                                            ######                                   
                                           ########,                                 
                                     ,,################,,,,,                         
                               ,,#################################,,                 
                          ,,##########################################,,             
                       ,#########################################, ''#####,          
                    ,#############################################,,   '####,        
                  ,##################################################,,,,####,       
                ,###########''''           ''''###############################       
              ,#####''   ,,,,##########,,,,          '''####'''          '####       
            ,##' ,,,,###########################,,,                        '##       
           ' ,,###''''                  '''############,,,                           
         ,,##''                                '''############,,,,        ,,,,,,###''
      ,#''                                            '''#######################'''  
     '                                                          ''''####''''         
             ,#######,   #######,   ,#######,      ##                                
            ,#'     '#,  ##    ##  ,#'     '#,    #''#        ,####,    ,#,          
            ##       ##  ##   ,#'  ##            #'  '#       #'       ,# #          
            ##       ##  #######   ##           ,######,      #####,      #          
            '#,     ,#'  ##    ##  '#,     ,#' ,#      #,     #,   #      #          
             '#######'   ##     ##  '#######'  #'      '#     '####' #    #          



                #########################################################
                #                        -***-                          #
                #          Department of theory and spectroscopy        #
                #                                                       #
                #                      Frank Neese                      #
                #                                                       #
                #     Directorship, Architecture, Infrastructure        #
                #                    SHARK, DRIVERS                     #
                #        Core code/Algorithms in most modules           #
                #                                                       #
                #        Max Planck Institute fuer Kohlenforschung      #
                #                Kaiser Wilhelm Platz 1                 #
                #                 D-45470 Muelheim/Ruhr                 #
                #                      Germany                          #
                #                                                       #
                #                  All rights reserved                  #
                #                        -***-                          #
                #########################################################


                         Program Version 6.1.1  -  RELEASE   -
                                (GIT: $487d211c$)
                          ($2025-11-21 10:33:24 +0100$)
                                                                         
                                  - NO-DMRG VERSION -                    
                                                                         


 With contributions from (in alphabetic order):
[Max-Planck-Institut fuer Kohlenforschung]                               
  Daniel Aravena         : Magnetic Suceptibility                        
  Michael Atanasov       : Ab Initio Ligand Field Theory (pilot matlab implementation)
  Alexander A. Auer      : GIAO ZORA, VPT2 properties, NMR spectrum      
  Ute Becker             : All parallelization in ORCA, NUMFREQ, NUMCALC 
  Giovanni Bistoni       : ED, misc. LED, open-shell LED, HFLD           
  Dmytro Bykov           : pre 5.0 version of the SCF Hessian            
  Marcos Casanova-Páez   : Triplet and SCS-CIS(D). UHF-(DLPNO)-IP/EA/STEOM-CCSD. UHF-CVS-IP/STEOM-CCSD   
  Vijay G. Chilkuri      : MRCI spin determinant printing, contributions to CSF-ICE 
  Pauline Colinet        : FMM embedding                                 
  Dipayan Datta          : RHF DLPNO-CCSD density                        
  Achintya Kumar Dutta   : EOM-CC, STEOM-CC                              
  Nicolas Foglia         : Exact transition moments, OPA infrastructure, MCD improvements    
  Dmitry Ganyushin       : Spin-Orbit,Spin-Spin,Magnetic field MRCI      
  Miquel Garcia-Rates    : C-PCM and meta-GGA Hessian, CCSD/C-PCM, Gaussian charge scheme 
  Tiago L. C. Gouveia    : GS-ROHF, GS-ROCIS                             
  Yang Guo               : DLPNO-NEVPT2, F12-NEVPT2, CIM, IAO-localization        
  Andreas Hansen         : Spin unrestricted coupled pair/coupled cluster methods 
  Ingolf Harden          : AUTO-CI MPn and infrastructure                
  Benjamin Helmich-Paris : MC-RPA, TRAH-(SCF,CASSCF), AVAS, COSX integrals, SCF dyn. polar., MC-PDFT, srDFT 
  Lee Huntington         : MR-EOM, pCC                                   
  Robert Izsak           : Overlap fitted RIJCOSX, COSX-SCS-MP3, EOM     
  Riya Kayal             : Wick's Theorem for AUTO-CI, AUTO-CI UHF-CCSDT 
  Emily Kempfer          : AUTO-CI RHF CISDT and CCSDT, approximate NEVPT4
  Christian Kollmar      : KDIIS, OOCD, Brueckner-CCSD(T), CCSD density, CASPT2, CASPT2-K, improved NEVPT2 
  Axel Koslowski         : Symmetry handling                             
  Simone Kossmann        : meta-GGA functionals, TD-DFT gradient, OOMP2, (MP2 Hessian; deprecated post 5.0) 
  Lucas Lang             : DCDCAS, Hyperfine gauge corrections, ICE-SOC+SSC
  Marvin Lechner         : AUTO-CI (C++ implementation), FIC-MRCC        
  Spencer Leger          : CASSCF response                               
  Dagmar Lenk            : GEPOL surface, SMD, ORCA-2-JSON               
  Dimitrios Liakos       : Extrapolation schemes; Compound Job, Property file
  Dimitrios Manganas     : Further ROCIS development; embedding schemes. LFT, Crystal Embedding 
  Dimitrios Pantazis     : SARC Basis sets                               
  Anastasios Papadopoulos: AUTO-CI, single reference methods and gradients 
  Taras Petrenko         : pre 6.0 DFT Hessian and TD-DFT gradient,  ECA, NRVS 
  Petra Pikulova         : Analytic Raman intensities                    
  Peter Pinski           : DLPNO-MP2, DLPNO-MP2 Gradient                 
  Shashank Vittal Rao    : ES-AILFT, MagRelax                            
  Christoph Reimann      : Effective Core Potentials                     
  Marius Retegan         : Local ZFS, SOC                                
  Christoph Riplinger    : Optimizer, TS searches, QM/MM, DLPNO-CCSD(T), (RO)-DLPNO pert. Triples 
  Michael Roemelt        : Original ROCIS implementation, recursive CI coupling coefficients
  Masaaki Saitow         : Open-shell DLPNO-CCSD energy and density      
  Barbara Sandhoefer     : DKH picture change effects                    
  Yorick L. A. Schmerwitz: GMF and freeze-and-release deltaSCF, NEB S-IDPP initial path                    
  Kantharuban Sivalingam : CASSCF convergence/infrastructure, NEVPT2, NEVPT3, NEVPT4(SD), FIC-MRCI and CEPA variants
  Bernardo de Souza      : ESD, SOC TD-DFT                               
  Georgi L. Stoychev     : AutoAux, RI-MP2 NMR, DLPNO-MP2 response, X2C  
  Van Anh Tran           : RI-MP2 g-tensors                              
  Willem Van den Heuvel  : Paramagnetic NMR                              
  Zikuan Wang            : NOTCH, Electric field optimization            
  Frank Wennmohs         : Technical directorship and infrastructure     
  Hang Xu                : AUTO-CI-Response properties                   
                                                                         
[FACCTs GmbH]                                                            
  Markus Bursch, Nicolas Foglia, Miquel Garcia-Rates, Ingolf Harden, Hagen Neugebauer, Anastasios Papadopoulos, 
  Christoph Riplinger, Bernardo de Souza, Georgi L. Stoychev                                                    
                                                                 
  APM, various basis sets, CI-OPT, improved COSX, DLPNO-Multilevel,           
  DOCKER, DRACO, updates on ESD, Fragmentator, GOAT, IRC, LR-CPCM, L-BFGS, MBIS, meta-GGA TD-DFT gradient, ML-optimized integration grids, 
  MM, NACMEs, nearIR, NEB, NEB-TS, NL-DFT gradient (VV10), 2- and 3-layer-ONIOM, interface openCOSMO-RS, QMMM,   
  Crystal-QMMM, RESP, rigid body optimization, SF, symmetry and pop. for TD-DFT, various functionals, SOLVATOR                                   
                                                                         
[Other institutions]                                                     
  V. Asgeirsson          : NEB                                           
  Christoph Bannwarth    : sTDA-DFT, sTD-DFT, PBEh-3c, B97-3c, D3        
  Giovanni Bistoni       : ETS/NOCV, ADLD/ADEX, COVALED                  
  Martin Brehm           : Molecular dynamics                            
  Ronald Cardenas        : ETS/NOCV                                      
  Martina Colucci        : COVALED                                       
  Sebastian Ehlert       : rSCAN, r2SCAN, r2SCAN-3c, D4, dhf basis sets  
  Marvin Friede          : D4 for Fr, Ra, Ac-Lr                          
  Lars Goerigk           : TD-DFT with DH, B97 family of functionals     
  Stefan Grimme          : VdW corrections, initial TS optimization, DFT functionals, gCP, sTDA/sTD-DF 
  Waldemar Hujo          : DFT-NL                                        
  H. Jonsson             : NEB                                           
  Holger Kruse           : gCP                                           
  Marcel Mueller         : wB97X-3c, vDZP basis set                      
  Hagen Neugebauer       : wr2SCAN, Native XTB                           
  Gianluca Regni         : ADLD/ADEX                                     
  Tobias Risthaus        : pre 6.0 range-separated hybrid DFT and stability analysis
  Lukas Wittmann         : regularized MP2, r2SCAN double-hybrids, wr2SCAN        
                                                                         
We gratefully acknowledge several colleagues who have allowed us to      
interface, adapt or use parts of their codes:                            
  Ed Valeev, F. Pavosevic, A. Kumar             : LibInt (2-el integral package), F12 methods 
  Garnet Chan, S. Sharma, J. Yang, R. Olivares  : DMRG                   
  Ulf Ekstrom                                   : XCFun DFT Library      
  Mihaly Kallay                                 : mrcc  (arbitrary order and MRCC methods)
  Frank Weinhold                                : gennbo (NPA and NBO analysis)           
  Simon Mueller                                 : openCOSMO-RS                            
  Christopher J. Cramer and Donald G. Truhlar   : smd solvation model                     
  S Lehtola, MJT Oliveira, MAL Marques          : LibXC Library                           
  Liviu Ungur et al                             : ANISO software                          


 Your calculation uses the libint2 library for the computation of 2-el integrals
 For citations please refer to: http://libint.valeyev.net

 Your ORCA version has been built with support for libXC version: 7.0.0
 For citations please refer to: https://libxc.gitlab.io

 This ORCA versions uses:
   CBLAS   interface :  Fast vector & matrix operations
   LAPACKE interface :  Fast linear algebra routines
   SCALAPACK package :  Parallel linear algebra routines
   Shared memory     :  Shared parallel matrices
   BLAS/LAPACK       :  OpenBLAS 0.3.29  USE64BITINT DYNAMIC_ARCH NO_AFFINITY SkylakeX SINGLE_THREADED
        Core in use  :  SkylakeX
   Copyright (c) 2011-2014, The OpenBLAS Project


  ***********************************
  * Starting time: Tue Mar 24 04:07:17 2026
  * Host name:     69a9a010081e
  * Process ID:    607
  * Working dir.:  /kaggle/working
  ***********************************

NOTE: MaxCore=3000 MB was set to SCF,MP2,MDCI,CIPSI,MRCI,RASCI and CIS
      => If you want to overwrite this, your respective input block should be placed after the MaxCore statement
Your calculation utilizes the atom-pairwise dispersion correction
with the Becke-Johnson damping scheme (D3BJ)


Warning: RI is on but no J-basis has been assigned. Assigning Def2/J (nothing to worry about!)
================================================================================

----- Orbital basis set information -----
Your calculation utilizes the basis: def2-TZVPP
   F. Weigend and R. Ahlrichs, Phys. Chem. Chem. Phys. 7, 3297 (2005).

----- AuxJ basis set information -----
Your calculation utilizes the auxiliary basis: def2/J
   H-Rn: F. Weigend, Phys. Chem. Chem. Phys. 8, 1057 (2006).
   Fr-Lr: K. Eichkorn, F. Weigend, O. Treutler, R. Ahlrichs; Theor. Chem. Acc. 97, 119 (1997).

================================================================================
                                        WARNINGS
                       Please study these warnings very carefully!
================================================================================


================================================================================
                                       INPUT FILE
================================================================================
NAME = /kaggle/working/Phe-Cl-2/Phe-Cl_InterFrag.inp
|  1> 
|  2> !RKS B3LYP def2-TZVPP TightSCF D3BJ # 6-31G(d,p)
|  3> 
|  4> %pal nprocs 2 end
|  5> %maxcore 3000
|  6> 
|  7> %elprop
|  8>   Polar 1      # polarizability via CP-SCF
|  9> end
| 10> 
| 11> %output
| 12>   PrintLevel Normal
| 13>   Print[ P_OrbEn ] 2
| 14> end
| 15> 
| 16> *xyz 0 1
| 17>   Cl     4.399769   -1.015187   -0.422487
| 18>   O     -1.498021   -1.206229   -1.434290
| 19>   O     -2.888129   -1.395913    0.315588
| 20>   N     -3.468970    1.343707   -0.074529
| 21>   C     -1.105870    1.157412    0.780394
| 22>   C     -2.135188    0.803414   -0.324872
| 23>   C      0.278528    0.635945    0.513932
| 24>   C      0.731682   -0.536501    1.118083
| 25>   C      1.121790    1.288611   -0.386624
| 26>   C     -2.235713   -0.701142   -0.435707
| 27>   C      1.992500   -1.050685    0.838276
| 28>   C      2.384704    0.791123   -0.679922
| 29>   C      2.805742   -0.378312   -0.061582
| 30>   H     -1.482744    0.769730    1.727957
| 31>   H     -1.092051    2.246207    0.844186
| 32>   H     -1.770603    1.191124   -1.273567
| 33>   H      0.091198   -1.059161    1.816712
| 34>   H      0.789535    2.200316   -0.866308
| 35>   H     -3.384091    2.346474    0.053876
| 36>   H     -3.810295    0.973061    0.807210
| 37>   H      2.334596   -1.958355    1.314283
| 38>   H      3.030908    1.306036   -1.376228
| 39>   H     -1.560377   -2.175775   -1.413280
| 40> 
| 41> *
| 42> 
| 43>                          ****END OF INPUT****
================================================================================

                       ****************************
                       * Single Point Calculation *
                       ****************************

---------------------------------
CARTESIAN COORDINATES (ANGSTROEM)
---------------------------------
  Cl     4.399769   -1.015187   -0.422487
  O     -1.498021   -1.206229   -1.434290
  O     -2.888129   -1.395913    0.315588
  N     -3.468970    1.343707   -0.074529
  C     -1.105870    1.157412    0.780394
  C     -2.135188    0.803414   -0.324872
  C      0.278528    0.635945    0.513932
  C      0.731682   -0.536501    1.118083
  C      1.121790    1.288611   -0.386624
  C     -2.235713   -0.701142   -0.435707
  C      1.992500   -1.050685    0.838276
  C      2.384704    0.791123   -0.679922
  C      2.805742   -0.378312   -0.061582
  H     -1.482744    0.769730    1.727957
  H     -1.092051    2.246207    0.844186
  H     -1.770603    1.191124   -1.273567
  H      0.091198   -1.059161    1.816712
  H      0.789535    2.200316   -0.866308
  H     -3.384091    2.346474    0.053876
  H     -3.810295    0.973061    0.807210
  H      2.334596   -1.958355    1.314283
  H      3.030908    1.306036   -1.376228
  H     -1.560377   -2.175775   -1.413280

----------------------------
CARTESIAN COORDINATES (A.U.)
----------------------------
  NO LB      ZA    FRAG     MASS         X           Y           Z
   0 Cl   17.0000    0    35.453    8.314358   -1.918425   -0.798385
   1 O     8.0000    0    15.999   -2.830849   -2.279442   -2.710415
   2 O     8.0000    0    15.999   -5.457773   -2.637893    0.596375
   3 N     7.0000    0    14.007   -6.555403    2.539238   -0.140839
   4 C     6.0000    0    12.011   -2.089791    2.187192    1.474731
   5 C     6.0000    0    12.011   -4.034921    1.518232   -0.613919
   6 C     6.0000    0    12.011    0.526342    1.201762    0.971191
   7 C     6.0000    0    12.011    1.382679   -1.013840    2.112871
   8 C     6.0000    0    12.011    2.119876    2.435122   -0.730613
   9 C     6.0000    0    12.011   -4.224885   -1.324966   -0.823367
  10 C     6.0000    0    12.011    3.765279   -1.985507    1.584112
  11 C     6.0000    0    12.011    4.506437    1.495006   -1.284866
  12 C     6.0000    0    12.011    5.302084   -0.714906   -0.116373
  13 H     1.0000    0     1.008   -2.801980    1.454579    3.265366
  14 H     1.0000    0     1.008   -2.063677    4.244716    1.595280
  15 H     1.0000    0     1.008   -3.345955    2.250898   -2.406693
  16 H     1.0000    0     1.008    0.172339   -2.001524    3.433088
  17 H     1.0000    0     1.008    1.492005    4.157995   -1.637085
  18 H     1.0000    0     1.008   -6.395005    4.434193    0.101811
  19 H     1.0000    0     1.008   -7.200414    1.838819    1.525406
  20 H     1.0000    0     1.008    4.411747   -3.700755    2.483635
  21 H     1.0000    0     1.008    5.727586    2.468050   -2.600694
  22 H     1.0000    0     1.008   -2.948685   -4.111619   -2.670712

--------------------------------
INTERNAL COORDINATES (ANGSTROEM)
--------------------------------
 Cl     0   0   0     0.000000000000     0.00000000     0.00000000
 O      1   0   0     5.987000020100     0.00000000     0.00000000
 O      2   1   0     2.242867202133   118.77692457     0.00000000
 N      3   2   1     2.827558184259    86.43005139   104.88617286
 C      4   3   2     2.519889039810    71.87570096   290.33637591
 C      4   3   2     1.460671957361    58.51203694   325.44022653
 C      5   4   3     1.503159223747   146.01594135    62.78905320
 C      7   5   4     1.394624179280   120.93809997   259.47962189
 C      7   5   4     1.395730925836   120.57013419    76.95672939
 C      3   2   1     1.213588709787    30.16211450    86.48447455
 C      8   7   5     1.390086030514   121.23041760   177.61134016
 C      9   7   5     1.388693558113   121.21186031   182.39670748
 C     11   8   7     1.386792133615   118.89187468   359.89471324
 H      5   4   3     1.090966078285    89.82754993   294.49976288
 H      5   4   3     1.090749712835    87.58860727   186.51881222
 H      6   4   3     1.087779145484   108.88591339   134.53595553
 H      8   7   5     1.082347314635   119.55813669   357.74037636
 H      9   7   5     1.082449135944   119.62582190     2.48263993
 H      4   3   2     1.014511678077   157.37371641   266.89846655
 H      4   3   2     1.015551513741    66.14847622   192.43914620
 H     11   8   7     1.080498572958   120.61183503   179.82322542
 H     12   9   7     1.080535539823   120.61459086   180.20196792
 H      2   1   3     0.971776279270    95.24376918   276.38187752

---------------------------
INTERNAL COORDINATES (A.U.)
---------------------------
 Cl     0   0   0     0.000000000000     0.00000000     0.00000000
 O      1   0   0    11.313790401769     0.00000000     0.00000000
 O      2   1   0     4.238404766786   118.77692457     0.00000000
 N      3   2   1     5.343310595977    86.43005139   104.88617286
 C      4   3   2     4.761900173110    71.87570096   290.33637591
 C      4   3   2     2.760269970912    58.51203694   325.44022653
 C      5   4   3     2.840559268560   146.01594135    62.78905320
 C      7   5   4     2.635457758584   120.93809997   259.47962189
 C      7   5   4     2.637549206475   120.57013419    76.95672939
 C      3   2   1     2.293350300716    30.16211450    86.48447455
 C      8   7   5     2.626881900260   121.23041760   177.61134016
 C      9   7   5     2.624250508774   121.21186031   182.39670748
 C     11   8   7     2.620657337209   118.89187468   359.89471324
 H      5   4   3     2.061627109357    89.82754993   294.49976288
 H      5   4   3     2.061218237912    87.58860727   186.51881222
 H      6   4   3     2.055604679156   108.88591339   134.53595553
 H      8   7   5     2.045340006445   119.55813669   357.74037636
 H      9   7   5     2.045532420834   119.62582190     2.48263993
 H      4   3   2     1.917149231231   157.37371641   266.89846655
 H      4   3   2     1.919114235860    66.14847622   192.43914620
 H     11   8   7     2.041846390984   120.61183503   179.82322542
 H     12   9   7     2.041916248235   120.61459086   180.20196792
 H      2   1   3     1.836391031261    95.24376918   276.38187752

---------------------
BASIS SET INFORMATION
---------------------
There are 5 groups of distinct atoms

 Group   1 Type Cl  : 14s9p3d1f contracted to 5s5p3d1f pattern {73211/51111/111/1}
 Group   2 Type O   : 11s6p2d1f contracted to 5s3p2d1f pattern {62111/411/11/1}
 Group   3 Type N   : 11s6p2d1f contracted to 5s3p2d1f pattern {62111/411/11/1}
 Group   4 Type C   : 11s6p2d1f contracted to 5s3p2d1f pattern {62111/411/11/1}
 Group   5 Type H   : 5s2p1d contracted to 3s2p1d pattern {311/11/1}

Atom   0Cl   basis set group =>   1
Atom   1O    basis set group =>   2
Atom   2O    basis set group =>   2
Atom   3N    basis set group =>   3
Atom   4C    basis set group =>   4
Atom   5C    basis set group =>   4
Atom   6C    basis set group =>   4
Atom   7C    basis set group =>   4
Atom   8C    basis set group =>   4
Atom   9C    basis set group =>   4
Atom  10C    basis set group =>   4
Atom  11C    basis set group =>   4
Atom  12C    basis set group =>   4
Atom  13H    basis set group =>   5
Atom  14H    basis set group =>   5
Atom  15H    basis set group =>   5
Atom  16H    basis set group =>   5
Atom  17H    basis set group =>   5
Atom  18H    basis set group =>   5
Atom  19H    basis set group =>   5
Atom  20H    basis set group =>   5
Atom  21H    basis set group =>   5
Atom  22H    basis set group =>   5
---------------------------------
AUXILIARY/J BASIS SET INFORMATION
---------------------------------
There are 5 groups of distinct atoms

 Group   1 Type Cl  : 14s5p5d2f1g contracted to 8s4p3d1f1g pattern {71111111/2111/311/2/1}
 Group   2 Type O   : 12s5p4d2f1g contracted to 6s4p3d1f1g pattern {711111/2111/211/2/1}
 Group   3 Type N   : 12s5p4d2f1g contracted to 6s4p3d1f1g pattern {711111/2111/211/2/1}
 Group   4 Type C   : 12s5p4d2f1g contracted to 6s4p3d1f1g pattern {711111/2111/211/2/1}
 Group   5 Type H   : 5s2p1d contracted to 3s1p1d pattern {311/2/1}

Atom   0Cl   basis set group =>   1
Atom   1O    basis set group =>   2
Atom   2O    basis set group =>   2
Atom   3N    basis set group =>   3
Atom   4C    basis set group =>   4
Atom   5C    basis set group =>   4
Atom   6C    basis set group =>   4
Atom   7C    basis set group =>   4
Atom   8C    basis set group =>   4
Atom   9C    basis set group =>   4
Atom  10C    basis set group =>   4
Atom  11C    basis set group =>   4
Atom  12C    basis set group =>   4
Atom  13H    basis set group =>   5
Atom  14H    basis set group =>   5
Atom  15H    basis set group =>   5
Atom  16H    basis set group =>   5
Atom  17H    basis set group =>   5
Atom  18H    basis set group =>   5
Atom  19H    basis set group =>   5
Atom  20H    basis set group =>   5
Atom  21H    basis set group =>   5
Atom  22H    basis set group =>   5


           ************************************************************
           *        Program running with 2 parallel MPI-processes     *
           *              working on a common directory               *
           ************************************************************
------------------------------------------------------------------------------
                             ORCA STARTUP CALCULATIONS
                           -- RI-GTO INTEGRALS CHOSEN --
------------------------------------------------------------------------------
------------------------------------------------------------------------------
                   ___                                                        
                  /   \      - P O W E R E D   B Y -                         
                 /     \                                                     
                 |  |  |   _    _      __       _____    __    __             
                 |  |  |  | |  | |    /  \     |  _  \  |  |  /  |          
                  \  \/   | |  | |   /    \    | | | |  |  | /  /          
                 / \  \   | |__| |  /  /\  \   | |_| |  |  |/  /          
                |  |  |   |  __  | /  /__\  \  |    /   |      \           
                |  |  |   | |  | | |   __   |  |    \   |  |\   \          
                \     /   | |  | | |  |  |  |  | |\  \  |  | \   \       
                 \___/    |_|  |_| |__|  |__|  |_| \__\ |__|  \__/        
                                                                              
                      - O R C A' S   B I G   F R I E N D -                    
                                      &                                       
                       - I N T E G R A L  F E E D E R -                       
                                                                              
 v1 FN, 2020, v2 2021, v3 2022-2024                                           
------------------------------------------------------------------------------


----------------------
SHARK INTEGRAL PACKAGE
----------------------

Number of atoms                             ...     23
Number of basis functions                   ...    554
Number of shells                            ...    206
Maximum angular momentum                    ...      3
Integral batch strategy                     ... SHARK/LIBINT Hybrid
RI-J (if used) integral strategy            ... SPLIT-RIJ (Revised 2003 algorithm where possible)
Printlevel                                  ...      1
Contraction scheme used                     ... SEGMENTED contraction
Prescreening option                         ... SCHWARTZ
   Thresh                                   ... 2.500e-11
   Tcut                                     ... 2.500e-12
   Tpresel                                  ... 2.500e-12 
Coulomb Range Separation                    ... NOT USED
Exchange Range Separation                   ... NOT USED
Multipole approximations                    ... NOT USED
Finite Nucleus Model                        ... NOT USED
CABS basis                                  ... NOT available
Auxiliary Coulomb fitting basis             ... AVAILABLE
   # of basis functions in Aux-J            ...    749
   # of shells in Aux-J                     ...    247
   Maximum angular momentum in Aux-J        ...      4
Auxiliary J/K fitting basis                 ... NOT available
Auxiliary Correlation fitting basis         ... NOT available
Auxiliary 'external' fitting basis          ... NOT available

Checking pre-screening integrals            ... done (  0.0 sec) Dimension = 206
   => SHARK Basis and OBASIS are compatible. Storing Pre-screening
Shell pair information
Shell pair cut-off parameter TPreSel        ...   2.5e-12
Total number of shell pairs                 ...     21321
Shell pairs after pre-screening             ...     17206
Total number of primitive shell pairs       ...     60707
Primitive shell pairs kept                  ...     35196
          la=0 lb=0:   3617 shell pairs
          la=1 lb=0:   4802 shell pairs
          la=1 lb=1:   1631 shell pairs
          la=2 lb=0:   2721 shell pairs
          la=2 lb=1:   1836 shell pairs
          la=2 lb=2:    527 shell pairs
          la=3 lb=0:    971 shell pairs
          la=3 lb=1:    653 shell pairs
          la=3 lb=2:    372 shell pairs
          la=3 lb=3:     76 shell pairs

Checking whether 4 symmetric matrices of dimension 554 fit in memory
:Max Core in MB      =   3000.00
 MB in use           =     24.47
 MB left             =   2975.53
 MB needed           =      4.69
 Data fit in memory  = YES
Calculating RI/J V-Matrix + Cholesky decomp.... done (  0.0 sec)
Calculating Nuclear repulsion               ... done (  0.0 sec) ENN=    856.362464768229 Eh

Diagonalization of the overlap matrix:
Smallest eigenvalue                        ... 8.005e-06
Time for diagonalization                   ...    0.042 sec
Threshold for overlap eigenvalues          ... 1.000e-07
Number of eigenvalues below threshold      ... 0
Time for construction of square roots      ...    0.015 sec
Total time needed                          ...    0.060 sec

-------------------
DFT GRID GENERATION
-------------------

General Integration Accuracy     IntAcc      ... 4.388
Radial Grid Type                 RadialGrid  ... OptM3 with GC (2021)
Angular Grid (max. ang.)         AngularGrid ... 4 (Lebedev-302)
Angular grid pruning method      GridPruning ... 4 (adaptive)
Weight generation scheme         WeightScheme... mBecke (2022)
Basis function cutoff            BFCut       ... 1.0000e-11
Integration weight cutoff        WCut        ... 1.0000e-14
Partially contracted basis set               ... off
Rotationally invariant grid construction     ... off
Angular grids for H and He will be reduced by one unit

Total number of grid points                  ...   111339
Total number of batches                      ...     1752
Average number of points per batch           ...       63
Average number of grid points per atom       ...     4841

--------------------
COSX GRID GENERATION
--------------------

GRIDX 1
-------
General Integration Accuracy     IntAcc      ... 3.816
Radial Grid Type                 RadialGrid  ... OptM3 with GC (2021)
Angular Grid (max. ang.)         AngularGrid ... 1 (Lebedev-50)
Angular grid pruning method      GridPruning ... 4 (adaptive)
Weight generation scheme         WeightScheme... mBecke (2022)
Basis function cutoff            BFCut       ... 1.0000e-11
Integration weight cutoff        WCut        ... 1.0000e-14
Partially contracted basis set               ... on
Rotationally invariant grid construction     ... off
Angular grids for H and He will be reduced by one unit

Total number of grid points                  ...    15155
Total number of batches                      ...      130
Average number of points per batch           ...      116
Average number of grid points per atom       ...      659
UseSFitting                                  ... on

GRIDX 2
-------
General Integration Accuracy     IntAcc      ... 4.020
Radial Grid Type                 RadialGrid  ... OptM3 with GC (2021)
Angular Grid (max. ang.)         AngularGrid ... 2 (Lebedev-110)
Angular grid pruning method      GridPruning ... 4 (adaptive)
Weight generation scheme         WeightScheme... mBecke (2022)
Basis function cutoff            BFCut       ... 1.0000e-11
Integration weight cutoff        WCut        ... 1.0000e-14
Partially contracted basis set               ... on
Rotationally invariant grid construction     ... off
Angular grids for H and He will be reduced by one unit

Total number of grid points                  ...    30720
Total number of batches                      ...      251
Average number of points per batch           ...      122
Average number of grid points per atom       ...     1336
UseSFitting                                  ... on

GRIDX 3
-------
General Integration Accuracy     IntAcc      ... 4.338
Radial Grid Type                 RadialGrid  ... OptM3 with GC (2021)
Angular Grid (max. ang.)         AngularGrid ... 3 (Lebedev-194)
Angular grid pruning method      GridPruning ... 4 (adaptive)
Weight generation scheme         WeightScheme... mBecke (2022)
Basis function cutoff            BFCut       ... 1.0000e-11
Integration weight cutoff        WCut        ... 1.0000e-14
Partially contracted basis set               ... on
Rotationally invariant grid construction     ... off
Angular grids for H and He will be reduced by one unit

Total number of grid points                  ...    68073
Total number of batches                      ...      544
Average number of points per batch           ...      125
Average number of grid points per atom       ...     2960
UseSFitting                                  ... on
Grids setup in   3.0 sec
Initializing property integral containers    ... done (  0.0 sec)

SHARK setup successfully completed in   3.5 seconds

Maximum memory used throughout the entire STARTUP-calculation: 65.7 MB


           ************************************************************
           *        Program running with 2 parallel MPI-processes     *
           *              working on a common directory               *
           ************************************************************
-------------------------------------------------------------------------------
                                 ORCA GUESS
                   Start orbitals & Density for SCF / CASSCF
-------------------------------------------------------------------------------

------------
SCF SETTINGS
------------
Hamiltonian:
 Density Functional     Method          .... DFT(GTOs)
 Exchange Functional    Exchange        .... B88
   X-Alpha parameter    XAlpha          ....  0.666667
   Becke's b parameter  XBeta           ....  0.004200
 Correlation Functional Correlation     .... LYP
 LDA part of GGA corr.  LDAOpt          .... VWN-5
 Gradients option       PostSCFGGA      .... off
 Hybrid DFT is turned on
   Fraction HF Exchange ScalHFX         ....  0.200000
   Scaling of DF-GGA-X  ScalDFX         ....  0.720000
   Scaling of DF-GGA-C  ScalDFC         ....  0.810000
   Scaling of DF-LDA-C  ScalLDAC        ....  1.000000
   Perturbative correction              ....  0.000000
   NL short-range parameter             ....  4.800000
 RI-approximation to the Coulomb term is turned on
   Number of AuxJ basis functions       .... 749
   RIJ-COSX (HFX calculated with COS-X)).... on


General Settings:
 Integral files         IntName         .... /kaggle/working/Phe-Cl-2/Phe-Cl_InterFrag
 Hartree-Fock type      HFTyp           .... RHF
 Total Charge           Charge          ....    0
 Multiplicity           Mult            ....    1
 Number of Electrons    NEL             ....  104
 Basis Dimension        Dim             ....  554
 Nuclear Repulsion      ENuc            ....    856.3624647682 Eh

Convergence Acceleration:
 AO-DIIS                CNVDIIS         .... on
   Start iteration      DIISMaxIt       ....    12
   Startup error        DIISStart       ....  0.200000
   # of expansion vecs  DIISMaxEq       ....     5
   Bias factor          DIISBfac        ....   1.050
   Max. coefficient     DIISMaxC        ....  10.000
 MO-DIIS                CNVKDIIS        .... off
 Trust-Rad. Augm. Hess. CNVTRAH         .... auto
   Auto Start mean grad. ratio tolernc. ....  1.125000
   Auto Start start iteration           ....    50
   Auto Start num. interpolation iter.  ....    10
   Max. Number of Micro iterations      ....    24
   Max. Number of Macro iterations      .... Maxiter - #DIIS iter
   Number of Davidson start vectors     ....     2
   Converg. threshold    (grad. norm)   ....   1.000e-05
   Grad. Scal. Fac. for Micro threshold ....   0.100
   Minimum threshold for Micro iter.    ....   1.000e-02
   NR start threshold (gradient norm)   ....   1.000e-04
   Initial trust radius                 ....   0.400
   Minimum AH scaling param. (alpha)    ....   1.000
   Maximum AH scaling param. (alpha)    .... 1000.000
   Quad. conv. algorithm                .... NR
   White noise on init. David. guess    .... on
   Maximum white noise                  ....   0.010
   Pseudo random numbers                .... off
   Inactive MOs                         .... canonical
   Orbital update algorithm             .... Taylor
   Preconditioner                       .... Diag
   Full preconditioner red. dimension   ....   250
 SOSCF                 CNVSOSCF           .... on
   Start iteration     SOSCFMaxIt         ....   150
   Startup grad/error  SOSCFStart         ....  0.003300
   Hessian update      SOSCFHessUp        .... L-BFGS
   Autom. constraints  SOSCFAutoConstrain .... off
 Level Shifting         CNVShift        .... on
   Level shift para.    LevelShift      ....    0.2500
   Turn off err/grad.   ShiftErr        ....    0.0010
 Zerner damping         CNVZerner       .... off
 Static damping         CNVDamp         .... on
   Fraction old density DampFac         ....    0.7000
   Max. Damping (<1)    DampMax         ....    0.9800
   Min. Damping (>=0)   DampMin         ....    0.0000
   Turn off err/grad.   DampErr         ....    0.1000

SCF Procedure:
 Maximum # iterations   MaxIter         ....   125
 SCF integral mode      SCFMode         .... Direct
   Integral package                     .... SHARK and LIBINT hybrid scheme
 Reset frequency        DirectResetFreq ....    20
 Integral Threshold     Thresh          ....  2.500e-11 Eh
 Primitive CutOff       TCut            ....  2.500e-12 Eh

Convergence Tolerance:
 Convergence Check Mode ConvCheckMode   .... Total+1el-Energy
 Convergence forced     ConvForced      .... 0
 Energy Change          TolE            ....  1.000e-08 Eh
 1-El. energy change                    ....  1.000e-05 Eh
 Orbital Gradient       TolG            ....  1.000e-05
 Orbital Rotation angle TolX            ....  1.000e-05
 DIIS Error             TolErr          ....  5.000e-07

------------------------------
INITIAL GUESS: MODEL POTENTIAL
------------------------------
Loading Hartree-Fock densities                     ... done
Calculating cut-offs                               ... done
Initializing the effective Hamiltonian             ... done
Setting up the integral package (SHARK)            ... done
Starting the Coulomb interaction                   ... done (   0.6 sec)
Making the grid                                    ... done (   0.4 sec)
Mapping shells                                     ... done
Starting the XC term evaluation                    ... done (   0.6 sec)
  promolecular density results
     # of electrons  =    103.992165432
     EX              =    -99.775335410
     EC              =     -3.676980171
     EX+EC           =   -103.452315581
Transforming the Hamiltonian                       ... done (   0.0 sec)
Diagonalizing the Hamiltonian                      ... done (   0.0 sec)
Back transforming the eigenvectors                 ... done (   0.0 sec)
Now organizing SCF variables                       ... done
                      ------------------
                      INITIAL GUESS DONE (   1.7 sec)
                      ------------------
             **** ENERGY FILE WAS UPDATED (/kaggle/working/Phe-Cl-2/Phe-Cl_InterFrag.en.tmp) ****
Finished Guess after   2.1 sec
Maximum memory used throughout the entire GUESS-calculation: 47.2 MB


           ************************************************************
           *        Program running with 2 parallel MPI-processes     *
           *              working on a common directory               *
           ************************************************************

-------------------------------------------------------------------------------------------
                                      ORCA LEAN-SCF
                              memory conserving SCF solver
-------------------------------------------------------------------------------------------

----------------------------------------D-I-I-S--------------------------------------------
Iteration    Energy (Eh)           Delta-E    RMSDP     MaxDP     DIISErr   Damp  Time(sec)
-------------------------------------------------------------------------------------------
               ***  Starting incremental Fock matrix formation  ***
    1    -1013.8437600905238014     0.00e+00  1.91e-03  1.00e-01  2.87e-01  0.700  20.2
    2    -1014.0429324126178017    -1.99e-01  1.52e-03  9.27e-02  1.25e-01  0.700  10.5
                               ***Turning on AO-DIIS***
    3    -1014.1159820619291168    -7.30e-02  5.90e-04  3.09e-02  3.56e-02  0.700  10.2
    4    -1014.1606062858541009    -4.46e-02  9.80e-04  3.34e-02  1.64e-02  0.000   9.6
    5    -1014.2603511622403403    -9.97e-02  3.20e-04  2.19e-02  6.66e-03  0.000  10.1
                              *** Initializing SOSCF ***
---------------------------------------S-O-S-C-F--------------------------------------
Iteration    Energy (Eh)           Delta-E    RMSDP     MaxDP     MaxGrad    Time(sec)
--------------------------------------------------------------------------------------
    6    -1014.2608798474243486    -5.29e-04  1.17e-04  8.09e-03  2.23e-03     9.2
               *** Restarting incremental Fock matrix formation ***
    7    -1014.2608681986835109     1.16e-05  8.05e-05  4.59e-03  4.72e-04    20.5
    8    -1014.2608561945810379     1.20e-05  2.56e-05  1.09e-03  1.26e-03    14.6
    9    -1014.2608750787662757    -1.89e-05  1.11e-05  4.31e-04  8.07e-05    13.3
   10    -1014.2608747166668763     3.62e-07  4.90e-06  1.83e-04  8.16e-05    12.7
   11    -1014.2608754626839982    -7.46e-07  1.80e-06  1.03e-04  1.21e-05    11.8
   12    -1014.2608754622240212     4.60e-10  1.12e-06  3.50e-05  9.60e-06     9.5
                 **** Energy Check signals convergence ****

               *****************************************************
               *                     SUCCESS                       *
               *           SCF CONVERGED AFTER  12 CYCLES          *
               *****************************************************

Recomputing exchange energy using gridx3       ... done (   35.012 sec)
Old exchange energy                            :    -20.180038379 Eh
New exchange energy                            :    -20.180062898 Eh
Exchange energy change after final integration :     -0.000024520 Eh
Total energy after final integration           :  -1014.260899972 Eh
             **** ENERGY FILE WAS UPDATED (/kaggle/working/Phe-Cl-2/Phe-Cl_InterFrag.en.tmp) ****

----------------
TOTAL SCF ENERGY
----------------

Total Energy       :      -1014.26089997174722 Eh          -27599.44222 eV

Components:
Nuclear Repulsion  :        856.36246476822885 Eh           23302.80736 eV
Electronic Energy  :      -1870.62334022029972 Eh          -50902.24891 eV
One Electron Energy:      -3089.01242939853910 Eh          -84056.30154 eV
Two Electron Energy:       1218.38908917823937 Eh           33154.05264 eV

Virial components:
Potential Energy   :      -2025.54897541948162 Eh          -55117.98977 eV
Kinetic Energy     :       1011.28807544773440 Eh           27518.54755 eV
Virial Ratio       :          2.00293964162753

DFT components:
N(Alpha)           :       51.999942991033 electrons
N(Beta)            :       51.999942991033 electrons
N(Total)           :      103.999885982065 electrons
E(X)               :      -80.193513907128 Eh       
E(C)               :       -4.329768387475 Eh       
E(XC)              :      -84.523282294603 Eh       

---------------
SCF CONVERGENCE
---------------

  Last Energy change         ...   -4.5998e-10  Tolerance :   1.0000e-08
  Last MAX-Density change    ...    3.5012e-05  Tolerance :   1.0000e-07
  Last RMS-Density change    ...    1.1152e-06  Tolerance :   5.0000e-09
  Last DIIS Error            ...    2.2260e-03  Tolerance :   5.0000e-07
  Last Orbital Gradient      ...    9.6010e-06  Tolerance :   1.0000e-05
  Last Orbital Rotation      ...    1.2649e-05  Tolerance :   1.0000e-05


----------------
ORBITAL ENERGIES
----------------

  NO   OCC          E(Eh)            E(eV) 
   0   2.0000    -101.524606     -2762.6250 
   1   2.0000     -19.183702      -522.0151 
   2   2.0000     -19.121804      -520.3307 
   3   2.0000     -14.309284      -389.3754 
   4   2.0000     -10.310500      -280.5630 
   5   2.0000     -10.239017      -278.6178 
   6   2.0000     -10.225679      -278.2549 
   7   2.0000     -10.195052      -277.4215 
   8   2.0000     -10.191574      -277.3268 
   9   2.0000     -10.191074      -277.3132 
  10   2.0000     -10.190512      -277.2979 
  11   2.0000     -10.189141      -277.2606 
  12   2.0000     -10.187977      -277.2290 
  13   2.0000      -9.456613      -257.3275 
  14   2.0000      -7.218042      -196.4129 
  15   2.0000      -7.209763      -196.1876 
  16   2.0000      -7.209441      -196.1789 
  17   2.0000      -1.118828       -30.4448 
  18   2.0000      -1.025510       -27.9055 
  19   2.0000      -0.909131       -24.7387 
  20   2.0000      -0.895740       -24.3743 
  21   2.0000      -0.847892       -23.0723 
  22   2.0000      -0.785619       -21.3778 
  23   2.0000      -0.766033       -20.8448 
  24   2.0000      -0.729254       -19.8440 
  25   2.0000      -0.680704       -18.5229 
  26   2.0000      -0.631058       -17.1720 
  27   2.0000      -0.608790       -16.5660 
  28   2.0000      -0.589298       -16.0356 
  29   2.0000      -0.542281       -14.7562 
  30   2.0000      -0.519476       -14.1357 
  31   2.0000      -0.494517       -13.4565 
  32   2.0000      -0.489073       -13.3084 
  33   2.0000      -0.483288       -13.1509 
  34   2.0000      -0.472766       -12.8646 
  35   2.0000      -0.451680       -12.2909 
  36   2.0000      -0.443235       -12.0610 
  37   2.0000      -0.438431       -11.9303 
  38   2.0000      -0.425366       -11.5748 
  39   2.0000      -0.415162       -11.2971 
  40   2.0000      -0.405368       -11.0306 
  41   2.0000      -0.392636       -10.6842 
  42   2.0000      -0.382788       -10.4162 
  43   2.0000      -0.368628       -10.0309 
  44   2.0000      -0.361222        -9.8293 
  45   2.0000      -0.338304        -9.2057 
  46   2.0000      -0.329291        -8.9605 
  47   2.0000      -0.314849        -8.5675 
  48   2.0000      -0.290911        -7.9161 
  49   2.0000      -0.273220        -7.4347 
  50   2.0000      -0.267358        -7.2752 
  51   2.0000      -0.243910        -6.6371 
  52   0.0000      -0.030680        -0.8348 
  53   0.0000      -0.027138        -0.7385 
  54   0.0000      -0.007715        -0.2099 
  55   0.0000       0.016258         0.4424 
  56   0.0000       0.027476         0.7477 
  57   0.0000       0.029870         0.8128 
  58   0.0000       0.055411         1.5078 
  59   0.0000       0.065707         1.7880 
  60   0.0000       0.080721         2.1965 
  61   0.0000       0.084264         2.2929 
  62   0.0000       0.090425         2.4606 
  63   0.0000       0.108609         2.9554 
  64   0.0000       0.117107         3.1866 
  65   0.0000       0.123083         3.3493 
  66   0.0000       0.133352         3.6287 
  67   0.0000       0.136344         3.7101 
  68   0.0000       0.143964         3.9175 
  69   0.0000       0.168387         4.5820 
  70   0.0000       0.177992         4.8434 
  71   0.0000       0.184539         5.0216 
  72   0.0000       0.193925         5.2770 
  73   0.0000       0.199146         5.4190 
  74   0.0000       0.208511         5.6739 
  75   0.0000       0.211653         5.7594 
  76   0.0000       0.216121         5.8809 
  77   0.0000       0.228086         6.2065 
  78   0.0000       0.230497         6.2721 
  79   0.0000       0.243623         6.6293 
  80   0.0000       0.246339         6.7032 
  81   0.0000       0.259967         7.0741 
  82   0.0000       0.272504         7.4152 
  83   0.0000       0.275630         7.5003 
  84   0.0000       0.290734         7.9113 
  85   0.0000       0.294013         8.0005 
  86   0.0000       0.298368         8.1190 
  87   0.0000       0.301901         8.2151 
  88   0.0000       0.312960         8.5161 
  89   0.0000       0.323129         8.7928 
  90   0.0000       0.327653         8.9159 
  91   0.0000       0.332500         9.0478 
  92   0.0000       0.337443         9.1823 
  93   0.0000       0.340269         9.2592 
  94   0.0000       0.344959         9.3868 
  95   0.0000       0.352469         9.5912 
  96   0.0000       0.359703         9.7880 
  97   0.0000       0.365053         9.9336 
  98   0.0000       0.373426        10.1614 
  99   0.0000       0.381273        10.3750 
 100   0.0000       0.393801        10.7159 
 101   0.0000       0.396741        10.7959 
 102   0.0000       0.398294        10.8381 
 103   0.0000       0.405141        11.0244 
 104   0.0000       0.417588        11.3632 
 105   0.0000       0.420911        11.4536 
 106   0.0000       0.429753        11.6942 
 107   0.0000       0.433747        11.8029 
 108   0.0000       0.444057        12.0834 
 109   0.0000       0.447418        12.1749 
 110   0.0000       0.451697        12.2913 
 111   0.0000       0.453554        12.3418 
 112   0.0000       0.461350        12.5540 
 113   0.0000       0.466245        12.6872 
 114   0.0000       0.487930        13.2773 
 115   0.0000       0.489741        13.3265 
 116   0.0000       0.492976        13.4146 
 117   0.0000       0.498199        13.5567 
 118   0.0000       0.511702        13.9241 
 119   0.0000       0.515346        14.0233 
 120   0.0000       0.518975        14.1220 
 121   0.0000       0.531172        14.4539 
 122   0.0000       0.540527        14.7085 
 123   0.0000       0.545567        14.8456 
 124   0.0000       0.562537        15.3074 
 125   0.0000       0.568509        15.4699 
 126   0.0000       0.578100        15.7309 
 127   0.0000       0.584871        15.9151 
 128   0.0000       0.591152        16.0861 
 129   0.0000       0.605894        16.4872 
 130   0.0000       0.618791        16.8382 
 131   0.0000       0.627308        17.0699 
 132   0.0000       0.641150        17.4466 
 133   0.0000       0.652350        17.7513 
 134   0.0000       0.660921        17.9846 
 135   0.0000       0.669905        18.2290 
 136   0.0000       0.671316        18.2674 
 137   0.0000       0.688986        18.7483 
 138   0.0000       0.693964        18.8837 
 139   0.0000       0.710477        19.3331 
 140   0.0000       0.714000        19.4289 
 141   0.0000       0.723644        19.6913 
 142   0.0000       0.740040        20.1375 
 143   0.0000       0.752006        20.4631 
 144   0.0000       0.760316        20.6892 
 145   0.0000       0.765921        20.8418 
 146   0.0000       0.789900        21.4943 
 147   0.0000       0.800931        21.7944 
 148   0.0000       0.805652        21.9229 
 149   0.0000       0.822605        22.3842 
 150   0.0000       0.832139        22.6436 
 151   0.0000       0.842106        22.9149 
 152   0.0000       0.854786        23.2599 
 153   0.0000       0.864175        23.5154 
 154   0.0000       0.869008        23.6469 
 155   0.0000       0.881439        23.9852 
 156   0.0000       0.893214        24.3056 
 157   0.0000       0.909390        24.7458 
 158   0.0000       0.917283        24.9605 
 159   0.0000       0.943933        25.6857 
 160   0.0000       0.947511        25.7831 
 161   0.0000       0.953847        25.9555 
 162   0.0000       0.967916        26.3383 
 163   0.0000       0.977417        26.5969 
 164   0.0000       0.990862        26.9627 
 165   0.0000       0.999911        27.2090 
 166   0.0000       1.001615        27.2553 
 167   0.0000       1.014627        27.6094 
 168   0.0000       1.016053        27.6482 
 169   0.0000       1.035276        28.1713 
 170   0.0000       1.036725        28.2107 
 171   0.0000       1.045637        28.4532 
 172   0.0000       1.051366        28.6091 
 173   0.0000       1.072914        29.1955 
 174   0.0000       1.087770        29.5997 
 175   0.0000       1.101039        29.9608 
 176   0.0000       1.102980        30.0136 
 177   0.0000       1.118744        30.4426 
 178   0.0000       1.135583        30.9008 
 179   0.0000       1.153043        31.3759 
 180   0.0000       1.162595        31.6358 
 181   0.0000       1.185486        32.2587 
 182   0.0000       1.187552        32.3149 
 183   0.0000       1.195604        32.5340 
 184   0.0000       1.202751        32.7285 
 185   0.0000       1.212599        32.9965 
 186   0.0000       1.223894        33.3038 
 187   0.0000       1.229103        33.4456 
 188   0.0000       1.232572        33.5400 
 189   0.0000       1.253082        34.0981 
 190   0.0000       1.259196        34.2645 
 191   0.0000       1.275041        34.6956 
 192   0.0000       1.285266        34.9739 
 193   0.0000       1.291493        35.1433 
 194   0.0000       1.302739        35.4493 
 195   0.0000       1.310311        35.6554 
 196   0.0000       1.321339        35.9555 
 197   0.0000       1.331714        36.2378 
 198   0.0000       1.346198        36.6319 
 199   0.0000       1.349911        36.7330 
 200   0.0000       1.364064        37.1181 
 201   0.0000       1.366088        37.1731 
 202   0.0000       1.369497        37.2659 
 203   0.0000       1.385059        37.6894 
 204   0.0000       1.392239        37.8848 
 205   0.0000       1.431559        38.9547 
 206   0.0000       1.440995        39.2115 
 207   0.0000       1.453044        39.5393 
 208   0.0000       1.469128        39.9770 
 209   0.0000       1.487827        40.4858 
 210   0.0000       1.494221        40.6598 
 211   0.0000       1.497100        40.7382 
 212   0.0000       1.522165        41.4202 
 213   0.0000       1.523796        41.4646 
 214   0.0000       1.543521        42.0013 
 215   0.0000       1.550203        42.1832 
 216   0.0000       1.554222        42.2925 
 217   0.0000       1.568099        42.6701 
 218   0.0000       1.574687        42.8494 
 219   0.0000       1.586195        43.1626 
 220   0.0000       1.599521        43.5252 
 221   0.0000       1.619050        44.0566 
 222   0.0000       1.622086        44.1392 
 223   0.0000       1.641593        44.6700 
 224   0.0000       1.644056        44.7370 
 225   0.0000       1.656509        45.0759 
 226   0.0000       1.661488        45.2114 
 227   0.0000       1.683768        45.8176 
 228   0.0000       1.692196        46.0470 
 229   0.0000       1.703858        46.3643 
 230   0.0000       1.717922        46.7470 
 231   0.0000       1.733504        47.1710 
 232   0.0000       1.757132        47.8140 
 233   0.0000       1.761568        47.9347 
 234   0.0000       1.776441        48.3394 
 235   0.0000       1.779362        48.4189 
 236   0.0000       1.791392        48.7463 
 237   0.0000       1.799898        48.9777 
 238   0.0000       1.828404        49.7534 
 239   0.0000       1.828919        49.7674 
 240   0.0000       1.845275        50.2125 
 241   0.0000       1.849123        50.3172 
 242   0.0000       1.878717        51.1225 
 243   0.0000       1.892601        51.5003 
 244   0.0000       1.913079        52.0575 
 245   0.0000       1.924334        52.3638 
 246   0.0000       1.932273        52.5798 
 247   0.0000       1.960662        53.3523 
 248   0.0000       1.970869        53.6301 
 249   0.0000       1.977442        53.8089 
 250   0.0000       1.987218        54.0750 
 251   0.0000       2.017528        54.8997 
 252   0.0000       2.019839        54.9626 
 253   0.0000       2.031568        55.2818 
 254   0.0000       2.039020        55.4846 
 255   0.0000       2.051209        55.8162 
 256   0.0000       2.059764        56.0490 
 257   0.0000       2.073558        56.4244 
 258   0.0000       2.089898        56.8690 
 259   0.0000       2.099983        57.1435 
 260   0.0000       2.105491        57.2933 
 261   0.0000       2.128653        57.9236 
 262   0.0000       2.148144        58.4540 
 263   0.0000       2.161142        58.8076 
 264   0.0000       2.197490        59.7967 
 265   0.0000       2.202177        59.9243 
 266   0.0000       2.206430        60.0400 
 267   0.0000       2.213677        60.2372 
 268   0.0000       2.226083        60.5748 
 269   0.0000       2.252304        61.2883 
 270   0.0000       2.274875        61.9025 
 271   0.0000       2.282584        62.1123 
 272   0.0000       2.285848        62.2011 
 273   0.0000       2.293763        62.4165 
 274   0.0000       2.307768        62.7976 
 275   0.0000       2.314455        62.9795 
 276   0.0000       2.332159        63.4613 
 277   0.0000       2.342945        63.7548 
 278   0.0000       2.361619        64.2629 
 279   0.0000       2.388853        65.0040 
 280   0.0000       2.405809        65.4654 
 281   0.0000       2.435103        66.2625 
 282   0.0000       2.466631        67.1204 
 283   0.0000       2.485089        67.6227 
 284   0.0000       2.526480        68.7490 
 285   0.0000       2.545697        69.2719 
 286   0.0000       2.562479        69.7286 
 287   0.0000       2.592674        70.5502 
 288   0.0000       2.609249        71.0013 
 289   0.0000       2.632643        71.6379 
 290   0.0000       2.638862        71.8071 
 291   0.0000       2.651624        72.1543 
 292   0.0000       2.662744        72.4569 
 293   0.0000       2.693174        73.2850 
 294   0.0000       2.710506        73.7566 
 295   0.0000       2.732429        74.3532 
 296   0.0000       2.738875        74.5286 
 297   0.0000       2.755582        74.9832 
 298   0.0000       2.765233        75.2458 
 299   0.0000       2.777657        75.5839 
 300   0.0000       2.789695        75.9115 
 301   0.0000       2.797665        76.1283 
 302   0.0000       2.811726        76.5110 
 303   0.0000       2.816371        76.6373 
 304   0.0000       2.819736        76.7289 
 305   0.0000       2.832681        77.0812 
 306   0.0000       2.840513        77.2943 
 307   0.0000       2.855720        77.7081 
 308   0.0000       2.865019        77.9611 
 309   0.0000       2.878708        78.3336 
 310   0.0000       2.890437        78.6528 
 311   0.0000       2.906608        79.0928 
 312   0.0000       2.913142        79.2706 
 313   0.0000       2.928166        79.6795 
 314   0.0000       2.929094        79.7047 
 315   0.0000       2.940566        80.0169 
 316   0.0000       2.949813        80.2685 
 317   0.0000       2.975296        80.9619 
 318   0.0000       2.985802        81.2478 
 319   0.0000       3.001011        81.6617 
 320   0.0000       3.007419        81.8360 
 321   0.0000       3.025390        82.3250 
 322   0.0000       3.032288        82.5127 
 323   0.0000       3.040568        82.7381 
 324   0.0000       3.047278        82.9207 
 325   0.0000       3.057241        83.1918 
 326   0.0000       3.069418        83.5231 
 327   0.0000       3.076630        83.7194 
 328   0.0000       3.083119        83.8959 
 329   0.0000       3.096327        84.2553 
 330   0.0000       3.106468        84.5313 
 331   0.0000       3.126571        85.0783 
 332   0.0000       3.137025        85.3628 
 333   0.0000       3.153468        85.8102 
 334   0.0000       3.159764        85.9815 
 335   0.0000       3.162908        86.0671 
 336   0.0000       3.173512        86.3556 
 337   0.0000       3.196696        86.9865 
 338   0.0000       3.205473        87.2253 
 339   0.0000       3.209710        87.3407 
 340   0.0000       3.215895        87.5089 
 341   0.0000       3.233041        87.9755 
 342   0.0000       3.243631        88.2637 
 343   0.0000       3.257938        88.6530 
 344   0.0000       3.264623        88.8349 
 345   0.0000       3.273216        89.0687 
 346   0.0000       3.279596        89.2423 
 347   0.0000       3.285559        89.4046 
 348   0.0000       3.297991        89.7429 
 349   0.0000       3.305403        89.9446 
 350   0.0000       3.306096        89.9634 
 351   0.0000       3.315953        90.2317 
 352   0.0000       3.328196        90.5648 
 353   0.0000       3.333395        90.7063 
 354   0.0000       3.346256        91.0562 
 355   0.0000       3.351173        91.1901 
 356   0.0000       3.373512        91.7979 
 357   0.0000       3.392714        92.3204 
 358   0.0000       3.398092        92.4668 
 359   0.0000       3.403280        92.6080 
 360   0.0000       3.406688        92.7007 
 361   0.0000       3.420830        93.0855 
 362   0.0000       3.435617        93.4879 
 363   0.0000       3.446179        93.7753 
 364   0.0000       3.458816        94.1192 
 365   0.0000       3.476799        94.6085 
 366   0.0000       3.486248        94.8656 
 367   0.0000       3.494979        95.1032 
 368   0.0000       3.500804        95.2617 
 369   0.0000       3.510106        95.5148 
 370   0.0000       3.520634        95.8013 
 371   0.0000       3.531870        96.1071 
 372   0.0000       3.543239        96.4164 
 373   0.0000       3.549315        96.5818 
 374   0.0000       3.567346        97.0724 
 375   0.0000       3.569488        97.1307 
 376   0.0000       3.587130        97.6108 
 377   0.0000       3.603707        98.0618 
 378   0.0000       3.619219        98.4840 
 379   0.0000       3.633342        98.8683 
 380   0.0000       3.657019        99.5125 
 381   0.0000       3.672527        99.9345 
 382   0.0000       3.676187       100.0341 
 383   0.0000       3.694492       100.5322 
 384   0.0000       3.705453       100.8305 
 385   0.0000       3.717196       101.1501 
 386   0.0000       3.723367       101.3180 
 387   0.0000       3.732543       101.5676 
 388   0.0000       3.749307       102.0238 
 389   0.0000       3.756444       102.2180 
 390   0.0000       3.763704       102.4156 
 391   0.0000       3.778077       102.8067 
 392   0.0000       3.787028       103.0503 
 393   0.0000       3.818005       103.8932 
 394   0.0000       3.823730       104.0490 
 395   0.0000       3.832790       104.2955 
 396   0.0000       3.850722       104.7835 
 397   0.0000       3.864456       105.1572 
 398   0.0000       3.877312       105.5070 
 399   0.0000       3.881193       105.6126 
 400   0.0000       3.887772       105.7916 
 401   0.0000       3.901704       106.1708 
 402   0.0000       3.902103       106.1816 
 403   0.0000       3.907860       106.3383 
 404   0.0000       3.912046       106.4522 
 405   0.0000       3.945863       107.3724 
 406   0.0000       3.960965       107.7834 
 407   0.0000       3.989045       108.5474 
 408   0.0000       3.993536       108.6696 
 409   0.0000       3.999232       108.8246 
 410   0.0000       4.029108       109.6376 
 411   0.0000       4.040873       109.9578 
 412   0.0000       4.054368       110.3250 
 413   0.0000       4.061466       110.5181 
 414   0.0000       4.083180       111.1090 
 415   0.0000       4.087546       111.2278 
 416   0.0000       4.093085       111.3785 
 417   0.0000       4.101537       111.6085 
 418   0.0000       4.117171       112.0339 
 419   0.0000       4.125629       112.2641 
 420   0.0000       4.150619       112.9441 
 421   0.0000       4.154085       113.0384 
 422   0.0000       4.176294       113.6427 
 423   0.0000       4.185791       113.9012 
 424   0.0000       4.193371       114.1074 
 425   0.0000       4.204833       114.4193 
 426   0.0000       4.220581       114.8479 
 427   0.0000       4.235343       115.2495 
 428   0.0000       4.253171       115.7347 
 429   0.0000       4.259514       115.9073 
 430   0.0000       4.261746       115.9680 
 431   0.0000       4.279605       116.4540 
 432   0.0000       4.287577       116.6709 
 433   0.0000       4.302501       117.0770 
 434   0.0000       4.312035       117.3364 
 435   0.0000       4.325639       117.7066 
 436   0.0000       4.338762       118.0637 
 437   0.0000       4.358183       118.5922 
 438   0.0000       4.377726       119.1240 
 439   0.0000       4.392514       119.5264 
 440   0.0000       4.403374       119.8219 
 441   0.0000       4.427678       120.4832 
 442   0.0000       4.443262       120.9073 
 443   0.0000       4.461967       121.4163 
 444   0.0000       4.491620       122.2232 
 445   0.0000       4.526422       123.1702 
 446   0.0000       4.539708       123.5317 
 447   0.0000       4.556660       123.9930 
 448   0.0000       4.559614       124.0734 
 449   0.0000       4.584064       124.7387 
 450   0.0000       4.606311       125.3441 
 451   0.0000       4.628954       125.9602 
 452   0.0000       4.641168       126.2926 
 453   0.0000       4.651803       126.5820 
 454   0.0000       4.676240       127.2470 
 455   0.0000       4.709910       128.1632 
 456   0.0000       4.730264       128.7170 
 457   0.0000       4.737045       128.9015 
 458   0.0000       4.741984       129.0359 
 459   0.0000       4.764034       129.6360 
 460   0.0000       4.787101       130.2636 
 461   0.0000       4.799158       130.5917 
 462   0.0000       4.810518       130.9009 
 463   0.0000       4.842282       131.7652 
 464   0.0000       4.870596       132.5357 
 465   0.0000       4.898912       133.3062 
 466   0.0000       4.901405       133.3740 
 467   0.0000       4.906361       133.5089 
 468   0.0000       4.948397       134.6527 
 469   0.0000       4.968212       135.1919 
 470   0.0000       4.979117       135.4887 
 471   0.0000       4.985734       135.6687 
 472   0.0000       4.997074       135.9773 
 473   0.0000       5.018485       136.5599 
 474   0.0000       5.028747       136.8391 
 475   0.0000       5.036214       137.0423 
 476   0.0000       5.111713       139.0968 
 477   0.0000       5.120757       139.3429 
 478   0.0000       5.149096       140.1140 
 479   0.0000       5.170363       140.6927 
 480   0.0000       5.179909       140.9525 
 481   0.0000       5.205627       141.6523 
 482   0.0000       5.251370       142.8970 
 483   0.0000       5.259665       143.1227 
 484   0.0000       5.296116       144.1146 
 485   0.0000       5.314358       144.6110 
 486   0.0000       5.324025       144.8741 
 487   0.0000       5.331178       145.0687 
 488   0.0000       5.376462       146.3010 
 489   0.0000       5.390411       146.6806 
 490   0.0000       5.423409       147.5785 
 491   0.0000       5.451261       148.3364 
 492   0.0000       5.480861       149.1418 
 493   0.0000       5.510456       149.9471 
 494   0.0000       5.551024       151.0510 
 495   0.0000       5.566305       151.4669 
 496   0.0000       5.604460       152.5051 
 497   0.0000       5.615021       152.7925 
 498   0.0000       5.637460       153.4031 
 499   0.0000       5.650491       153.7577 
 500   0.0000       5.657443       153.9469 
 501   0.0000       5.660185       154.0215 
 502   0.0000       5.683856       154.6656 
 503   0.0000       5.710775       155.3981 
 504   0.0000       5.769773       157.0035 
 505   0.0000       5.815772       158.2552 
 506   0.0000       5.840953       158.9404 
 507   0.0000       5.865050       159.5961 
 508   0.0000       5.921463       161.1312 
 509   0.0000       5.939449       161.6206 
 510   0.0000       6.008438       163.4979 
 511   0.0000       6.045822       164.5152 
 512   0.0000       6.099882       165.9862 
 513   0.0000       6.168811       167.8619 
 514   0.0000       6.174318       168.0117 
 515   0.0000       6.324481       172.0979 
 516   0.0000       6.358869       173.0336 
 517   0.0000       6.430243       174.9758 
 518   0.0000       6.453873       175.6188 
 519   0.0000       6.467515       175.9900 
 520   0.0000       6.503114       176.9587 
 521   0.0000       6.539339       177.9445 
 522   0.0000       6.572241       178.8398 
 523   0.0000       6.593637       179.4220 
 524   0.0000       6.672688       181.5731 
 525   0.0000       6.737918       183.3481 
 526   0.0000       6.852805       186.4743 
 527   0.0000       6.877220       187.1387 
 528   0.0000       6.966240       189.5610 
 529   0.0000       7.094930       193.0629 
 530   0.0000       7.264476       197.6764 
 531   0.0000       7.425158       202.0488 
 532   0.0000       7.499715       204.0776 
 533   0.0000       8.038651       218.7428 
 534   0.0000       8.086172       220.0359 
 535   0.0000       8.105568       220.5637 
 536   0.0000       8.240045       224.2230 
 537   0.0000       8.315572       226.2782 
 538   0.0000      10.712021       291.4889 
 539   0.0000      10.800308       293.8913 
 540   0.0000      11.349616       308.8387 
 541   0.0000      22.512617       612.5995 
 542   0.0000      22.893360       622.9600 
 543   0.0000      23.059127       627.4708 
 544   0.0000      23.157355       630.1437 
 545   0.0000      23.196656       631.2131 
 546   0.0000      23.263365       633.0283 
 547   0.0000      23.354145       635.4986 
 548   0.0000      23.461826       638.4287 
 549   0.0000      23.956936       651.9014 
 550   0.0000      25.935324       705.7360 
 551   0.0000      32.668178       888.9463 
 552   0.0000      43.898992      1194.5523 
 553   0.0000      43.988362      1196.9842 

                    ********************************
                    * MULLIKEN POPULATION ANALYSIS *
                    ********************************

-----------------------
MULLIKEN ATOMIC CHARGES
-----------------------
   0 Cl:   -0.120725
   1 O :   -0.262126
   2 O :   -0.328950
   3 N :   -0.326188
   4 C :   -0.161747
   5 C :    0.109828
   6 C :    0.043846
   7 C :   -0.161432
   8 C :   -0.164751
   9 C :    0.279111
  10 C :   -0.153627
  11 C :   -0.156399
  12 C :    0.119633
  13 H :    0.090707
  14 H :    0.083184
  15 H :    0.098766
  16 H :    0.142027
  17 H :    0.125322
  18 H :    0.123354
  19 H :    0.136123
  20 H :    0.136209
  21 H :    0.133900
  22 H :    0.213934
Sum of atomic charges:    0.0000000

--------------------------------
MULLIKEN REDUCED ORBITAL CHARGES
--------------------------------
  0 Cls       :     5.882438  s :     5.882438
      pz      :     3.917362  p :    11.172782
      px      :     3.386462
      py      :     3.868958
      dz2     :     0.007873  d :     0.060141
      dxz     :     0.013634
      dyz     :     0.003769
      dx2y2   :     0.018591
      dxy     :     0.016275
      f0      :     0.000507  f :     0.005364
      f+1     :     0.000900
      f-1     :     0.000163
      f+2     :     0.000534
      f-2     :     0.000602
      f+3     :     0.001123
      f-3     :     0.001534

  1 O s       :     3.751511  s :     3.751511
      pz      :     1.566424  p :     4.483436
      px      :     1.640492
      py      :     1.276520
      dz2     :     0.007194  d :     0.025899
      dxz     :     0.006944
      dyz     :     0.003722
      dx2y2   :     0.005631
      dxy     :     0.002409
      f0      :     0.000156  f :     0.001279
      f+1     :     0.000293
      f-1     :     0.000167
      f+2     :     0.000208
      f-2     :     0.000265
      f+3     :     0.000059
      f-3     :     0.000130

  2 O s       :     3.805847  s :     3.805847
      pz      :     1.462557  p :     4.491648
      px      :     1.412838
      py      :     1.616253
      dz2     :     0.006965  d :     0.029675
      dxz     :     0.005378
      dyz     :     0.006186
      dx2y2   :     0.005639
      dxy     :     0.005507
      f0      :     0.000178  f :     0.001780
      f+1     :     0.000231
      f-1     :     0.000331
      f+2     :     0.000339
      f-2     :     0.000307
      f+3     :     0.000174
      f-3     :     0.000220

  3 N s       :     3.514587  s :     3.514587
      pz      :     1.398978  p :     3.774420
      px      :     1.293446
      py      :     1.081996
      dz2     :     0.007963  d :     0.035622
      dxz     :     0.007086
      dyz     :     0.002976
      dx2y2   :     0.011311
      dxy     :     0.006286
      f0      :     0.000100  f :     0.001559
      f+1     :     0.000347
      f-1     :     0.000123
      f+2     :     0.000226
      f-2     :     0.000130
      f+3     :     0.000277
      f-3     :     0.000357

  4 C s       :     3.231244  s :     3.231244
      pz      :     0.948107  p :     2.835170
      px      :     0.877647
      py      :     1.009416
      dz2     :     0.022348  d :     0.089707
      dxz     :     0.020646
      dyz     :     0.009476
      dx2y2   :     0.025288
      dxy     :     0.011949
      f0      :     0.000699  f :     0.005626
      f+1     :     0.001201
      f-1     :     0.000435
      f+2     :     0.000797
      f-2     :     0.000655
      f+3     :     0.000875
      f-3     :     0.000964

  5 C s       :     3.080507  s :     3.080507
      pz      :     0.963774  p :     2.641721
      px      :     0.809206
      py      :     0.868740
      dz2     :     0.030887  d :     0.157788
      dxz     :     0.040752
      dyz     :     0.018960
      dx2y2   :     0.041981
      dxy     :     0.025209
      f0      :     0.001210  f :     0.010156
      f+1     :     0.001700
      f-1     :     0.000882
      f+2     :     0.001377
      f-2     :     0.001206
      f+3     :     0.002027
      f-3     :     0.001756

  6 C s       :     3.278187  s :     3.278187
      pz      :     0.883404  p :     2.534730
      px      :     0.788974
      py      :     0.862352
      dz2     :     0.024474  d :     0.133549
      dxz     :     0.026093
      dyz     :     0.017693
      dx2y2   :     0.033341
      dxy     :     0.031949
      f0      :     0.000827  f :     0.009689
      f+1     :     0.001201
      f-1     :     0.001468
      f+2     :     0.001681
      f-2     :     0.001276
      f+3     :     0.001626
      f-3     :     0.001609

  7 C s       :     3.192205  s :     3.192205
      pz      :     0.985062  p :     2.865422
      px      :     0.949818
      py      :     0.930542
      dz2     :     0.009994  d :     0.096263
      dxz     :     0.024440
      dyz     :     0.014119
      dx2y2   :     0.021098
      dxy     :     0.026613
      f0      :     0.000592  f :     0.007541
      f+1     :     0.000730
      f-1     :     0.001201
      f+2     :     0.000965
      f-2     :     0.001297
      f+3     :     0.001460
      f-3     :     0.001295

  8 C s       :     3.181320  s :     3.181320
      pz      :     0.959112  p :     2.877985
      px      :     0.925361
      py      :     0.993512
      dz2     :     0.015258  d :     0.097862
      dxz     :     0.021088
      dyz     :     0.013517
      dx2y2   :     0.025530
      dxy     :     0.022468
      f0      :     0.000878  f :     0.007585
      f+1     :     0.001137
      f-1     :     0.000652
      f+2     :     0.001424
      f-2     :     0.001055
      f+3     :     0.001573
      f-3     :     0.000865

  9 C s       :     3.091394  s :     3.091394
      pz      :     0.709910  p :     2.347197
      px      :     0.730335
      py      :     0.906952
      dz2     :     0.074477  d :     0.257573
      dxz     :     0.039306
      dyz     :     0.045135
      dx2y2   :     0.059446
      dxy     :     0.039210
      f0      :     0.003308  f :     0.024724
      f+1     :     0.003184
      f-1     :     0.003607
      f+2     :     0.005504
      f-2     :     0.003303
      f+3     :     0.003287
      f-3     :     0.002532

 10 C s       :     3.191087  s :     3.191087
      pz      :     0.943251  p :     2.854803
      px      :     0.932540
      py      :     0.979012
      dz2     :     0.016499  d :     0.100090
      dxz     :     0.024044
      dyz     :     0.011917
      dx2y2   :     0.023686
      dxy     :     0.023944
      f0      :     0.000941  f :     0.007646
      f+1     :     0.001106
      f-1     :     0.000697
      f+2     :     0.001461
      f-2     :     0.001082
      f+3     :     0.001563
      f-3     :     0.000797

 11 C s       :     3.195391  s :     3.195391
      pz      :     0.961710  p :     2.853499
      px      :     0.964947
      py      :     0.926842
      dz2     :     0.011336  d :     0.099860
      dxz     :     0.024897
      dyz     :     0.013417
      dx2y2   :     0.022019
      dxy     :     0.028191
      f0      :     0.000594  f :     0.007649
      f+1     :     0.000759
      f-1     :     0.001297
      f+2     :     0.000903
      f-2     :     0.001332
      f+3     :     0.001460
      f-3     :     0.001304

 12 C s       :     3.165155  s :     3.165155
      pz      :     0.910072  p :     2.548069
      px      :     0.784852
      py      :     0.853145
      dz2     :     0.028337  d :     0.156694
      dxz     :     0.027420
      dyz     :     0.023573
      dx2y2   :     0.040343
      dxy     :     0.037021
      f0      :     0.000874  f :     0.010448
      f+1     :     0.001312
      f-1     :     0.001661
      f+2     :     0.001733
      f-2     :     0.001391
      f+3     :     0.001696
      f-3     :     0.001781

 13 H s       :     0.872526  s :     0.872526
      pz      :     0.012884  p :     0.034919
      px      :     0.011172
      py      :     0.010863
      dz2     :     0.000485  d :     0.001848
      dxz     :     0.000536
      dyz     :     0.000389
      dx2y2   :     0.000295
      dxy     :     0.000143

 14 H s       :     0.879935  s :     0.879935
      pz      :     0.010840  p :     0.034991
      px      :     0.010683
      py      :     0.013468
      dz2     :     0.000034  d :     0.001890
      dxz     :     0.000038
      dyz     :     0.000804
      dx2y2   :     0.000103
      dxy     :     0.000912

 15 H s       :     0.862059  s :     0.862059
      pz      :     0.016395  p :     0.036995
      px      :     0.010246
      py      :     0.010354
      dz2     :     0.000580  d :     0.002180
      dxz     :     0.000606
      dyz     :     0.000479
      dx2y2   :     0.000344
      dxy     :     0.000170

 16 H s       :     0.821015  s :     0.821015
      pz      :     0.012261  p :     0.035286
      px      :     0.011349
      py      :     0.011676
      dz2     :     0.000497  d :     0.001673
      dxz     :     0.000165
      dyz     :     0.000265
      dx2y2   :     0.000534
      dxy     :     0.000211

 17 H s       :     0.837096  s :     0.837096
      pz      :     0.012577  p :     0.035889
      px      :     0.009971
      py      :     0.013341
      dz2     :     0.000361  d :     0.001694
      dxz     :     0.000190
      dyz     :     0.000324
      dx2y2   :     0.000324
      dxy     :     0.000495

 18 H s       :     0.806422  s :     0.806422
      pz      :     0.024590  p :     0.065198
      px      :     0.017164
      py      :     0.023444
      dz2     :     0.000339  d :     0.005027
      dxz     :     0.000082
      dyz     :     0.001954
      dx2y2   :     0.001093
      dxy     :     0.001559

 19 H s       :     0.793879  s :     0.793879
      pz      :     0.028382  p :     0.065071
      px      :     0.018844
      py      :     0.017845
      dz2     :     0.001942  d :     0.004927
      dxz     :     0.001094
      dyz     :     0.000989
      dx2y2   :     0.000425
      dxy     :     0.000477

 20 H s       :     0.827810  s :     0.827810
[...]
  9 C      5.7209     6.0000     0.2791     4.3154     4.3154     0.0000
 10 C      6.1536     6.0000    -0.1536     4.0069     4.0069     0.0000
 11 C      6.1564     6.0000    -0.1564     4.0278     4.0278    -0.0000
 12 C      5.8804     6.0000     0.1196     3.8322     3.8322     0.0000
 13 H      0.9093     1.0000     0.0907     1.0252     1.0252     0.0000
 14 H      0.9168     1.0000     0.0832     1.0086     1.0086     0.0000
 15 H      0.9012     1.0000     0.0988     1.0236     1.0236    -0.0000
 16 H      0.8580     1.0000     0.1420     1.0051     1.0051    -0.0000
 17 H      0.8747     1.0000     0.1253     1.0032     1.0032    -0.0000
 18 H      0.8766     1.0000     0.1234     1.0318     1.0318     0.0000
 19 H      0.8639     1.0000     0.1361     1.0434     1.0434     0.0000
 20 H      0.8638     1.0000     0.1362     1.0064     1.0064    -0.0000
 21 H      0.8661     1.0000     0.1339     1.0073     1.0073    -0.0000
 22 H      0.7861     1.0000     0.2139     1.0420     1.0420     0.0000

  Mayer bond orders larger than 0.100000
B(  0-Cl, 12-C ) :   0.9339 B(  1-O ,  9-C ) :   1.2244 B(  1-O , 22-H ) :   0.9598 
B(  2-O ,  9-C ) :   2.0587 B(  3-N ,  5-C ) :   0.9975 B(  3-N , 18-H ) :   0.9998 
B(  3-N , 19-H ) :   0.9911 B(  4-C ,  5-C ) :   0.9170 B(  4-C ,  6-C ) :   0.8666 
B(  4-C , 13-H ) :   0.9944 B(  4-C , 14-H ) :   0.9933 B(  5-C ,  9-C ) :   0.9142 
B(  5-C , 15-H ) :   0.9719 B(  6-C ,  7-C ) :   1.3420 B(  6-C ,  8-C ) :   1.3535 
B(  7-C , 10-C ) :   1.4387 B(  7-C , 16-H ) :   0.9577 B(  8-C , 11-C ) :   1.4608 
B(  8-C , 17-H ) :   0.9601 B( 10-C , 12-C ) :   1.3865 B( 10-C , 20-H ) :   0.9622 
B( 11-C , 12-C ) :   1.3804 B( 11-C , 21-H ) :   0.9602 

-------
TIMINGS
-------

Total SCF time: 0 days 0 hours 3 min 17 sec 

Total time                  ....     197.043 sec
Sum of individual times     ....     188.681 sec  ( 95.8%)

SCF preparation             ....       0.443 sec  (  0.2%)
Fock matrix formation       ....     185.574 sec  ( 94.2%)
  Startup                   ....       0.020 sec  (  0.0% of F)
  Split-RI-J                ....      14.732 sec  (  7.9% of F)
  Chain of spheres X        ....     156.889 sec  ( 84.5% of F)
  XC integration            ....      22.048 sec  ( 11.9% of F)
    XC Preparation          ....       0.000 sec  (  0.0% of XC)
    Basis function eval.    ....       5.219 sec  ( 23.7% of XC)
    Density eval.           ....       5.640 sec  ( 25.6% of XC)
    XC-Functional eval.     ....       0.402 sec  (  1.8% of XC)
    XC-Potential eval.      ....      10.179 sec  ( 46.2% of XC)
Diagonalization             ....       0.000 sec  (  0.0%)
Density matrix formation    ....       0.142 sec  (  0.1%)
Total Energy calculation    ....       0.062 sec  (  0.0%)
Population analysis         ....       0.914 sec  (  0.5%)
Orbital Transformation      ....       0.192 sec  (  0.1%)
Orbital Orthonormalization  ....       0.000 sec  (  0.0%)
DIIS solution               ....       0.820 sec  (  0.4%)
  MO trafo                  ....       0.000 sec  (  0.0 % of DIIS)
  Orb grad                  ....       0.000 sec  (  0.0 % of DIIS)
  Energy W gradient         ....       0.000 sec  (  0.0 % of DIIS)
  DIIS error                ....       0.172 sec  ( 21.0 % of DIIS)
  DIIS work                 ....       0.538 sec  ( 65.6 % of DIIS)
  Form Q                    ....       0.000 sec  (  0.0 % of DIIS)
  Form QpQm                 ....       0.000 sec  (  0.0 % of DIIS)
  Exp/Cayley                ....       0.000 sec  (  0.0 % of DIIS)
  Orb update                ....       0.000 sec  (  0.0 % of DIIS)
  Wake-sleep                ....       0.017 sec  (  2.0 % of DIIS)
SOSCF solution              ....       0.535 sec  (  0.3%)
  MO trafo                  ....       0.222 sec  ( 41.5 % of SOSCF)
  Orb grad                  ....       0.010 sec  (  1.9 % of SOSCF)
  Rot update                ....       0.020 sec  (  3.7 % of SOSCF)
  Step                      ....       0.274 sec  ( 51.1 % of SOSCF)
Finished LeanSCF after 197.1 sec

Maximum memory used throughout the entire LEANSCF-calculation: 73.5 MB


-------------------------------------------------------------------------------
                          DFT DISPERSION CORRECTION                            
                                                                               
                              DFTD3 V3.1  Rev 1                                
                          USING Becke-Johnson damping                          
-------------------------------------------------------------------------------
The B3LYP functional is recognized
Active option DFTDOPT                   ...         4   

molecular C6(AA) [au] = 6599.882865 


            DFT-D V3
 parameters
 s6 scaling factor         :     1.0000 
 a1 scaling factor         :     0.3981 
 s8 scaling factor         :     1.9889 
 a2 scaling factor         :     4.4211 
 ad hoc parameters k1-k3   :    16.0000     1.3333    -4.0000 

 Edisp/kcal,au: -29.491514364018  -0.046997714675 
 E6   /kcal   : -13.776365549 
 E8   /kcal   : -15.715148815 
 % E8         :  53.287018838 

-------------------------   ----------------
Dispersion correction           -0.046997715
-------------------------   ----------------


-------------------------   --------------------
FINAL SINGLE POINT ENERGY     -1014.307897686423
-------------------------   --------------------



           ************************************************************
           *        Program running with 2 parallel MPI-processes     *
           *              working on a common directory               *
           ************************************************************
------------------------------------------------------------------------------
                            ORCA SCF RESPONSE CALCULATION
------------------------------------------------------------------------------

GBWName                                 ... /kaggle/working/Phe-Cl-2/Phe-Cl_InterFrag.gbw
Number of atoms                         ...     23
Number of basis functions               ...    554
Max core memory                         ...   3000 MB

Electric field perturbation             ... YES
Quadrupolar field perturbation          ...  NO
Magnetic field perturbation (no GIAO)   ...  NO
Magnetic field perturbation (with GIAO) ...  NO
Linear momentum (velocity) perturbation ...  NO
Spin-orbit coupling perturbation        ...  NO
Choice of electric origin               ... Center of mass
Position of electric origin             ...     0.723308    -0.272378    -0.150637
Choice of magnetic origin               ... GIAO
Position of magnetic origin             ...     0.000000     0.000000     0.000000
Nuclear geometric perturbations         ...  NO (  69 perturbations)
Nucleus-orbit perturbations             ...  NO (   0 perturbations)
Spin-dipole/Fermi contact perturbations ...  NO (   0 perturbations)

Total number of real perturbations      ...      3
Total number of imaginary perturbations ...      0
Total number of triplet perturbations   ...      0
Total number of SOC perturbations       ...      0

Using XC Grid                  ... (/kaggle/working/Phe-Cl-2/Phe-Cl_InterFrag.grid_cpscf.tmp) 
Recalculating density on grid  ... (/kaggle/working/Phe-Cl-2/Phe-Cl_InterFrag.grho_cpscf0.tmp) done
Calculating the xc-kernel      ... (/kaggle/working/Phe-Cl-2/Phe-Cl_InterFrag.fxc_cpscf0.tmp) done

                                **********************
                                * REAL PERTURBATIONS *
                                **********************



-------------------
SHARK CP-SCF DRIVER
-------------------

Dimension of the orbital basis          ...    554
Dimension of the CPSCF-problem          ...  26104
Number of operators                     ...      1
Max. number of iterations               ...    128
Convergence Tolerance                   ... 1.0e-04
Number of perturbations                 ...      3
Perturbation type                       ... REAL

----------------------------
POPLE LINEAR EQUATION SOLVER
----------------------------

  ITERATION   0:   ||err||_max =   1.8591e+01 (   9.6 sec   0/  3 done)
  ITERATION   1:   ||err||_max =   1.6597e+00 (   8.8 sec   0/  3 done)
  ITERATION   2:   ||err||_max =   4.6575e-01 (   8.8 sec   0/  3 done)
  ITERATION   3:   ||err||_max =   1.5306e-01 (   8.8 sec   0/  3 done)
  ITERATION   4:   ||err||_max =   6.0630e-02 (   8.8 sec   0/  3 done)
  ITERATION   5:   ||err||_max =   2.0351e-02 (   8.9 sec   0/  3 done)
  ITERATION   6:   ||err||_max =   6.6208e-03 (   8.8 sec   0/  3 done)
  ITERATION   7:   ||err||_max =   2.3548e-03 (   8.9 sec   0/  3 done)
  ITERATION   8:   ||err||_max =   8.2108e-04 (   8.9 sec   0/  3 done)
  ITERATION   9:   ||err||_max =   2.7300e-04 (   8.9 sec   0/  3 done)
  ITERATION  10:   ||err||_max =   7.5668e-05 (   9.0 sec   3/  3 done)

CP-SCF equations solved in  98.1 sec
Response densities calculated in   0.0 sec

Maximum memory used throughout the entire SCFRESP-calculation: 95.8 MB


           ************************************************************
           *        Program running with 2 parallel MPI-processes     *
           *              working on a common directory               *
           ************************************************************

------------------------------------------------------------------------------
                              ORCA PROPERTY CALCULATIONS
------------------------------------------------------------------------------

GBWName                                 ... /kaggle/working/Phe-Cl-2/Phe-Cl_InterFrag.gbw
Number of atoms                         ...     23
Number of basis functions               ...    554
Max core memory                         ...   3000 MB

Electric properties:
Dipole moment                           ... YES
Quadrupole moment                       ...  NO
Static polarizability (Dipole/Dipole)   ... YES
Static polarizability (Dipole/Quad.)    ...  NO
Static polarizability (Quad./Quad.)     ...  NO
Static polarizability (Velocity)        ...  NO
Static hyperpolarizability              ...  NO

Atomic electric properties:
Dipole moment                           ...  NO
Quadrupole moment                       ...  NO
Static polarizability                   ...  NO

Choice of electric origin               ... Center of mass
Position of electric origin             ...     0.723308    -0.272378    -0.150637

General magnetic properties:
Magnetizability                         ...  NO

EPR properties:
g-Tensor (aka g-matrix)                 ...  NO
Zero-Field splitting spin-orbit         ...  NO
Zero-field splitting spin-spin          ...  NO
Hyperfine couplings                     ...  NO (   0 nuclei)
Quadrupole couplings                    ...  NO (   0 nuclei)
Contact density                         ...  NO (   0 nuclei)

NMR properties:
Chemical shifts                         ...  NO (   0 nuclei)
Spin-rotation constants                 ...  NO (   0 nuclei)
Spin-spin couplings                     ...  NO (   0 nuclei,    0 pairs)

Choice of magnetic origin               ... GIAO
Position of magnetic origin             ...     0.000000     0.000000     0.000000

Properties with geometric perturbations:
SCF Hessian                             ...  NO
IR spectrum                             ...  NO
VCD spectrum                            ...  NO
X-ray spectroscopy properties:
SCF XES/XAS/RIXS spectra                ...  NO

SCF SOC stabilization energy            ...  NO
Diagonal Born-Oppenheimer correction    ...  NO

-------------
DIPOLE MOMENT
-------------

Method             : SCF
Type of density    : Electron Density
Multiplicity       :   1
Irrep              :   0
Energy             : -1014.2608999717472216 Eh
Basis              : AO
                                X                 Y                 Z
Electronic contribution:     15.570836879      -7.290886983      -2.615659598
Nuclear contribution   :    -15.510198472       7.973984089       2.727540095
                        -----------------------------------------
Total Dipole Moment    :      0.060638408       0.683097107       0.111880497
                        -----------------------------------------
Magnitude (a.u.)       :      0.694849566
Magnitude (Debye)      :      1.766167237



--------------------
Rotational spectrum 
--------------------
 
Rotational constants in cm-1:             0.055508             0.011049             0.010326 
Rotational constants in MHz :          1664.076058           331.238820           309.564838 

Dipole components along the rotational axes: 
x,y,z [a.u.] :    -0.026639     0.693438    -0.035354 
x,y,z [Debye]:    -0.067711     1.762580    -0.089862 

 

Dipole moment calculation done in   0.0 sec 


---------------------------------------------------
STATIC POLARIZABILITY TENSOR (Dipole/Dipole)
---------------------------------------------------

Method             : SCF
Type of density    : Electron Density
Type of derivative : Electric Field (Direction=X)
Multiplicity       :   1
Irrep              :   0
Basis              : AO

The raw cartesian tensor (atomic units):
     170.372816962       -20.313550899       -17.346884365  
     -20.313550899       121.638732179        -8.862778558  
     -17.346884365        -8.862778558       101.305640799  
diagonalized tensor: 
      90.683195708       122.569747252       180.064246979  

Orientation: 
       0.296334297         0.179016504        -0.938157277  
       0.437526536         0.847700727         0.299956677  
       0.848973801        -0.499356154         0.172878329  

Isotropic polarizability : 131.10573


Polarizability tensor calculation done in   0.0 sec 

Maximum memory used throughout the entire PROP-calculation: 50.6 MB

--------------------------------
SUGGESTED CITATIONS FOR THIS RUN
--------------------------------

Below you find a list of papers that are relevant to this ORCA run
We neither can nor want to force you to cite these papers, but we appreciate if you do
You receive ORCA, which is the product of decades of hard work by many enthusiastic individuals, for free
The only thing we kindly ask in return is that you cite our papers,
We deeply appreciate it, if you show your appreciation for ORCA by not just citing the generic ORCA reference.

Please note that relegating all ORCA citations to the supporting information does *not* help us.
SI sections are not indexed - citations you put there will not count into any citation statistics
But we need these citations in order to attract the funding resources that allow us to do what we are doing

Therefore, if you are a happy ORCA user, please consider citing a few of the papers listed below in the main body of your paper

In addition to the list printed below, the program has created the file /kaggle/working/Phe-Cl-2/Phe-Cl_InterFrag.bibtex that contains the list in bibtex format
You can import this file easily into all common literature databanks and citation aid programs

It goes without saying that in many instances, there are alternative algorithms to achieve similar
results as the ones you have gotten from ORCA. It is, of course, also the case that in some instances
ORCA just re-implements algorithms worked out by others. We are fully aware of that and we are also
fully appreciative of our colleagues work. Hence this citation list should not be read as indicating
that the listed papers, which are focused on our own work, are the only ones worth citing. It simply
meant to make it easier for users to cite ORCA specific papers. It is not a substitute for doing your
own literature research and citing the relevant literature in a scientifically appropriate manner.

List of essential papers. We consider these as the minimum necessary citations

  1. Neese, F.
     Software update: the ORCA program system, version 6.0
     WIRES Comput. Molec. Sci. 2025 15(1), e70019
     doi.org/10.1002/wcms.70019

List of papers to cite with high priority. The work reported in these papers was absolutely
necessary for this run to complete.
Our perspective: the developers of density functionals and basis sets usually get cited in chemistry papers
Good! But without the algorithms to do something with them, the functionals or basis sets would not do anything.
Hence, in our opinion, the algorithm design and method developments papers are equally worthy of getting cited

  1. Neese, F.
     An improvement of the resolution of the identity approximation for the formation of the Coulomb matrix
     J. Comp. Chem. 2003 24(14), 1740-1747
     doi.org/10.1002/jcc.10318
  2. Neese, F.; Wennmohs, F.; Hansen, A.; Becker, U.
     Efficient, approximate and parallel Hartree-Fock and hybrid DFT calculations. A 'chain-of-spheres' algorithm for the Hartree-Fock exchange
     Chem. Phys. 2009 356(1-3), 98-109
     doi.org/10.1016/j.chemphys.2008.10.036
  3. Grimme, S.; Antony, J.; Ehrlich, S.; Krieg, H.
     A consistent and accurate ab initio parametrization of density functional dispersion correction (DFT-D) for the 94 elements H-Pu
     J. Chem. Phys. 2010 132 , 154104
     doi.org/10.1063/1.3382344
  4. Grimme, S.; Ehrlich, S.; Goerigk, L.
     Effect of the damping function in dispersion corrected density functional theory
     J. Comput. Chem. 2011 32(7), 1456-1465
     doi.org/10.1002/jcc.21759
  5. Helmich-Paris, B.; de Souza, B.; Neese, F.; Izsák, R.
     An improved chain of spheres for exchange algorithm
     J. Chem. Phys. 2021 155(10), 104109
     doi.org/10.1063/5.0058766
  6. Neese, F.
     The SHARK Integral Generation and Digestion System
     J. Comp. Chem. 2022 44(3), 381
     doi.org/10.1002/jcc.26942

List of suggested additional citations. These are papers that are important in the 'surrounding' of 
of this run, or papers that preceded the highly important papers. If you like your results we are grateful for a citation.

  1. Izsak, R.; Neese, F.
     An overlap fitted chain of spheres exchange method
     J. Chem. Phys. 2011 135 , 144105
     doi.org/10.1063/1.3646921
  2. Izsak, R.; Hansen, A.; Neese, F.
     The resolution of identity and chain of spheres approximations for the LPNO-CCSD singles Fock term
     Molec. Phys. 2012 110 , 2413-2417
     doi.org/10.1080/00268976.2012.687466
  3. Neese, F.
     The ORCA program system
     WIRES Comput. Molec. Sci. 2012 2(1), 73-78
     doi.org/10.1002/wcms.81
  4. Izsak, R.; Neese, F.; Klopper, W.
     Robust fitting techniques in the chain of spheres approximation to the Fock exchange: The role of the complementary space
     J. Chem. Phys. 2013 139 , 
     doi.org/10.1063/1.4819264
  5. Neese, F.
     Software update: the ORCA program system, version 4.0
     WIRES Comput. Molec. Sci. 2018 8(1), 1-6
     doi.org/10.1002/wcms.1327
  6. Neese, F.; Wennmohs, F.; Becker, U.; Riplinger, C.
     The ORCA quantum chemistry program package
     J. Chem. Phys. 2020 152(22), 224108
     doi.org/10.1063/5.0004608
  7. Neese, F.
     Software update: The ORCA program system—Version 5.0
     WIRES Comput. Molec. Sci. 2022 12(1), e1606
     doi.org/10.1002/wcms.1606

List of optional additional citations

  1. Neese, F.
     Approximate second-order SCF convergence for spin unrestricted wavefunctions
     Chem. Phys. Lett. 2000 325(1-3), 93-98
     doi.org/10.1016/s0009-2614(00)00662-x

Timings for individual modules:

Sum of individual times          ...      302.808 sec (=   5.047 min)
Startup calculation              ...        3.815 sec (=   0.064 min)   1.3 %
SCF iterations                   ...      199.439 sec (=   3.324 min)  65.9 %
SCF Response                     ...       99.053 sec (=   1.651 min)  32.7 %
Property calculations            ...        0.502 sec (=   0.008 min)   0.2 %
                             ****ORCA TERMINATED NORMALLY****
TOTAL RUN TIME: 0 days 0 hours 5 minutes 3 seconds 288 msec
