
                                 *****************
                                 * O   R   C   A *
                                 *****************

                                            #,                                       
                                            ###                                      
                                            ####                                     
                                            #####                                    
                                            ######                                   
                                           ########,                                 
                                     ,,################,,,,,                         
                               ,,#################################,,                 
                          ,,##########################################,,             
                       ,#########################################, ''#####,          
                    ,#############################################,,   '####,        
                  ,##################################################,,,,####,       
                ,###########''''           ''''###############################       
              ,#####''   ,,,,##########,,,,          '''####'''          '####       
            ,##' ,,,,###########################,,,                        '##       
           ' ,,###''''                  '''############,,,                           
         ,,##''                                '''############,,,,        ,,,,,,###''
      ,#''                                            '''#######################'''  
     '                                                          ''''####''''         
             ,#######,   #######,   ,#######,      ##                                
            ,#'     '#,  ##    ##  ,#'     '#,    #''#        ,####,    ,#,          
            ##       ##  ##   ,#'  ##            #'  '#       #'       ,# #          
            ##       ##  #######   ##           ,######,      #####,      #          
            '#,     ,#'  ##    ##  '#,     ,#' ,#      #,     #,   #      #          
             '#######'   ##     ##  '#######'  #'      '#     '####' #    #          



                #########################################################
                #                        -***-                          #
                #          Department of theory and spectroscopy        #
                #                                                       #
                #                      Frank Neese                      #
                #                                                       #
                #     Directorship, Architecture, Infrastructure        #
                #                    SHARK, DRIVERS                     #
                #        Core code/Algorithms in most modules           #
                #                                                       #
                #        Max Planck Institute fuer Kohlenforschung      #
                #                Kaiser Wilhelm Platz 1                 #
                #                 D-45470 Muelheim/Ruhr                 #
                #                      Germany                          #
                #                                                       #
                #                  All rights reserved                  #
                #                        -***-                          #
                #########################################################


                         Program Version 6.1.1  -  RELEASE   -
                                (GIT: $487d211c$)
                          ($2025-11-21 10:33:24 +0100$)
                                                                         
                                  - NO-DMRG VERSION -                    
                                                                         


 With contributions from (in alphabetic order):
[Max-Planck-Institut fuer Kohlenforschung]                               
  Daniel Aravena         : Magnetic Suceptibility                        
  Michael Atanasov       : Ab Initio Ligand Field Theory (pilot matlab implementation)
  Alexander A. Auer      : GIAO ZORA, VPT2 properties, NMR spectrum      
  Ute Becker             : All parallelization in ORCA, NUMFREQ, NUMCALC 
  Giovanni Bistoni       : ED, misc. LED, open-shell LED, HFLD           
  Dmytro Bykov           : pre 5.0 version of the SCF Hessian            
  Marcos Casanova-Páez   : Triplet and SCS-CIS(D). UHF-(DLPNO)-IP/EA/STEOM-CCSD. UHF-CVS-IP/STEOM-CCSD   
  Vijay G. Chilkuri      : MRCI spin determinant printing, contributions to CSF-ICE 
  Pauline Colinet        : FMM embedding                                 
  Dipayan Datta          : RHF DLPNO-CCSD density                        
  Achintya Kumar Dutta   : EOM-CC, STEOM-CC                              
  Nicolas Foglia         : Exact transition moments, OPA infrastructure, MCD improvements    
  Dmitry Ganyushin       : Spin-Orbit,Spin-Spin,Magnetic field MRCI      
  Miquel Garcia-Rates    : C-PCM and meta-GGA Hessian, CCSD/C-PCM, Gaussian charge scheme 
  Tiago L. C. Gouveia    : GS-ROHF, GS-ROCIS                             
  Yang Guo               : DLPNO-NEVPT2, F12-NEVPT2, CIM, IAO-localization        
  Andreas Hansen         : Spin unrestricted coupled pair/coupled cluster methods 
  Ingolf Harden          : AUTO-CI MPn and infrastructure                
  Benjamin Helmich-Paris : MC-RPA, TRAH-(SCF,CASSCF), AVAS, COSX integrals, SCF dyn. polar., MC-PDFT, srDFT 
  Lee Huntington         : MR-EOM, pCC                                   
  Robert Izsak           : Overlap fitted RIJCOSX, COSX-SCS-MP3, EOM     
  Riya Kayal             : Wick's Theorem for AUTO-CI, AUTO-CI UHF-CCSDT 
  Emily Kempfer          : AUTO-CI RHF CISDT and CCSDT, approximate NEVPT4
  Christian Kollmar      : KDIIS, OOCD, Brueckner-CCSD(T), CCSD density, CASPT2, CASPT2-K, improved NEVPT2 
  Axel Koslowski         : Symmetry handling                             
  Simone Kossmann        : meta-GGA functionals, TD-DFT gradient, OOMP2, (MP2 Hessian; deprecated post 5.0) 
  Lucas Lang             : DCDCAS, Hyperfine gauge corrections, ICE-SOC+SSC
  Marvin Lechner         : AUTO-CI (C++ implementation), FIC-MRCC        
  Spencer Leger          : CASSCF response                               
  Dagmar Lenk            : GEPOL surface, SMD, ORCA-2-JSON               
  Dimitrios Liakos       : Extrapolation schemes; Compound Job, Property file
  Dimitrios Manganas     : Further ROCIS development; embedding schemes. LFT, Crystal Embedding 
  Dimitrios Pantazis     : SARC Basis sets                               
  Anastasios Papadopoulos: AUTO-CI, single reference methods and gradients 
  Taras Petrenko         : pre 6.0 DFT Hessian and TD-DFT gradient,  ECA, NRVS 
  Petra Pikulova         : Analytic Raman intensities                    
  Peter Pinski           : DLPNO-MP2, DLPNO-MP2 Gradient                 
  Shashank Vittal Rao    : ES-AILFT, MagRelax                            
  Christoph Reimann      : Effective Core Potentials                     
  Marius Retegan         : Local ZFS, SOC                                
  Christoph Riplinger    : Optimizer, TS searches, QM/MM, DLPNO-CCSD(T), (RO)-DLPNO pert. Triples 
  Michael Roemelt        : Original ROCIS implementation, recursive CI coupling coefficients
  Masaaki Saitow         : Open-shell DLPNO-CCSD energy and density      
  Barbara Sandhoefer     : DKH picture change effects                    
  Yorick L. A. Schmerwitz: GMF and freeze-and-release deltaSCF, NEB S-IDPP initial path                    
  Kantharuban Sivalingam : CASSCF convergence/infrastructure, NEVPT2, NEVPT3, NEVPT4(SD), FIC-MRCI and CEPA variants
  Bernardo de Souza      : ESD, SOC TD-DFT                               
  Georgi L. Stoychev     : AutoAux, RI-MP2 NMR, DLPNO-MP2 response, X2C  
  Van Anh Tran           : RI-MP2 g-tensors                              
  Willem Van den Heuvel  : Paramagnetic NMR                              
  Zikuan Wang            : NOTCH, Electric field optimization            
  Frank Wennmohs         : Technical directorship and infrastructure     
  Hang Xu                : AUTO-CI-Response properties                   
                                                                         
[FACCTs GmbH]                                                            
  Markus Bursch, Nicolas Foglia, Miquel Garcia-Rates, Ingolf Harden, Hagen Neugebauer, Anastasios Papadopoulos, 
  Christoph Riplinger, Bernardo de Souza, Georgi L. Stoychev                                                    
                                                                 
  APM, various basis sets, CI-OPT, improved COSX, DLPNO-Multilevel,           
  DOCKER, DRACO, updates on ESD, Fragmentator, GOAT, IRC, LR-CPCM, L-BFGS, MBIS, meta-GGA TD-DFT gradient, ML-optimized integration grids, 
  MM, NACMEs, nearIR, NEB, NEB-TS, NL-DFT gradient (VV10), 2- and 3-layer-ONIOM, interface openCOSMO-RS, QMMM,   
  Crystal-QMMM, RESP, rigid body optimization, SF, symmetry and pop. for TD-DFT, various functionals, SOLVATOR                                   
                                                                         
[Other institutions]                                                     
  V. Asgeirsson          : NEB                                           
  Christoph Bannwarth    : sTDA-DFT, sTD-DFT, PBEh-3c, B97-3c, D3        
  Giovanni Bistoni       : ETS/NOCV, ADLD/ADEX, COVALED                  
  Martin Brehm           : Molecular dynamics                            
  Ronald Cardenas        : ETS/NOCV                                      
  Martina Colucci        : COVALED                                       
  Sebastian Ehlert       : rSCAN, r2SCAN, r2SCAN-3c, D4, dhf basis sets  
  Marvin Friede          : D4 for Fr, Ra, Ac-Lr                          
  Lars Goerigk           : TD-DFT with DH, B97 family of functionals     
  Stefan Grimme          : VdW corrections, initial TS optimization, DFT functionals, gCP, sTDA/sTD-DF 
  Waldemar Hujo          : DFT-NL                                        
  H. Jonsson             : NEB                                           
  Holger Kruse           : gCP                                           
  Marcel Mueller         : wB97X-3c, vDZP basis set                      
  Hagen Neugebauer       : wr2SCAN, Native XTB                           
  Gianluca Regni         : ADLD/ADEX                                     
  Tobias Risthaus        : pre 6.0 range-separated hybrid DFT and stability analysis
  Lukas Wittmann         : regularized MP2, r2SCAN double-hybrids, wr2SCAN        
                                                                         
We gratefully acknowledge several colleagues who have allowed us to      
interface, adapt or use parts of their codes:                            
  Ed Valeev, F. Pavosevic, A. Kumar             : LibInt (2-el integral package), F12 methods 
  Garnet Chan, S. Sharma, J. Yang, R. Olivares  : DMRG                   
  Ulf Ekstrom                                   : XCFun DFT Library      
  Mihaly Kallay                                 : mrcc  (arbitrary order and MRCC methods)
  Frank Weinhold                                : gennbo (NPA and NBO analysis)           
  Simon Mueller                                 : openCOSMO-RS                            
  Christopher J. Cramer and Donald G. Truhlar   : smd solvation model                     
  S Lehtola, MJT Oliveira, MAL Marques          : LibXC Library                           
  Liviu Ungur et al                             : ANISO software                          


 Your calculation uses the libint2 library for the computation of 2-el integrals
 For citations please refer to: http://libint.valeyev.net

 Your ORCA version has been built with support for libXC version: 7.0.0
 For citations please refer to: https://libxc.gitlab.io

 This ORCA versions uses:
   CBLAS   interface :  Fast vector & matrix operations
   LAPACKE interface :  Fast linear algebra routines
   SCALAPACK package :  Parallel linear algebra routines
   Shared memory     :  Shared parallel matrices
   BLAS/LAPACK       :  OpenBLAS 0.3.29  USE64BITINT DYNAMIC_ARCH NO_AFFINITY SkylakeX SINGLE_THREADED
        Core in use  :  SkylakeX
   Copyright (c) 2011-2014, The OpenBLAS Project


  ***********************************
  * Starting time: Tue Mar 24 03:20:23 2026
  * Host name:     69a9a010081e
  * Process ID:    54
  * Working dir.:  /kaggle/working
  ***********************************

NOTE: MaxCore=3000 MB was set to SCF,MP2,MDCI,CIPSI,MRCI,RASCI and CIS
      => If you want to overwrite this, your respective input block should be placed after the MaxCore statement
Your calculation utilizes the atom-pairwise dispersion correction
with the Becke-Johnson damping scheme (D3BJ)


Your calculation utilizes the SMD solvation module
Please cite in your paper:
Marenich, A. V.; Cramer, C. J.; Truhlar, D. G. J. Phys. Chem. B 2009, 113, 6378 

Warning: RI is on but no J-basis has been assigned. Assigning Def2/J (nothing to worry about!)
================================================================================

----- Orbital basis set information -----
Your calculation utilizes the basis: def2-TZVPP
   F. Weigend and R. Ahlrichs, Phys. Chem. Chem. Phys. 7, 3297 (2005).

----- AuxJ basis set information -----
Your calculation utilizes the auxiliary basis: def2/J
   H-Rn: F. Weigend, Phys. Chem. Chem. Phys. 8, 1057 (2006).
   Fr-Lr: K. Eichkorn, F. Weigend, O. Treutler, R. Ahlrichs; Theor. Chem. Acc. 97, 119 (1997).

================================================================================
                                        WARNINGS
                       Please study these warnings very carefully!
================================================================================


WARNING: Geometry Optimization
  ===> : Switching off AutoStart
         For restart on a previous wavefunction, please use MOREAD

================================================================================
                                       INPUT FILE
================================================================================
NAME = /kaggle/working/Phe-Cl-1/Phe-Cl_InterFrag.inp
|  1> 
|  2> !RKS B3LYP def2-TZVPP TightSCF Opt D3BJ # 6-31G(d,p)
|  3>  
|  4> %pal nprocs 2 end
|  5> %maxcore 3000
|  6> 
|  7> %cpcm
|  8>   smd true
|  9>   SMDsolvent "WATER"
| 10>   end
| 11> 
| 12> %scf
| 13>   MaxIter 1000
| 14>   SOSCF Start 0.00033
| 15>   end
| 16> end
| 17> 
| 18> %output
| 19>   PrintLevel Normal
| 20>   Print[ P_OrbEn ] 2        # print ALL orbital energies (not just up to LUMO+9) :contentReference[oaicite:10]{index=10}
| 21>   XYZFile true              # writes basename.xyz (handy for reuse) :contentReference[oaicite:11]{index=11}
| 22>   end
| 23> 
| 24> *xyz 0 1
| 25> Cl       4.539600000     -0.687700000     -0.428400000
| 26> O       -1.776100000     -1.650500000     -0.984300000
| 27> O       -3.496800000     -1.183400000      0.418100000
| 28> N       -3.279000000      1.466300000     -0.261900000
| 29> C       -1.090700000      1.024100000      0.753400000
| 30> C       -2.078900000      0.638500000     -0.358400000
| 31> C        0.326700000      0.592600000      0.455000000
| 32> C        0.756700000     -0.656400000      0.871200000
| 33> C        1.168100000      1.455300000     -0.228000000
| 34> C       -2.536500000     -0.805200000     -0.240800000
| 35> C        2.065100000     -1.054100000      0.596800000
| 36> C        2.476600000      1.057600000     -0.502600000
| 37> C        2.925200000     -0.197200000     -0.090200000
| 38> H       -1.405700000      0.602500000      1.717900000
| 39> H       -1.085900000      2.113400000      0.899800000
| 40> H       -1.651400000      0.792600000     -1.355900000
| 41> H        0.096100000     -1.330100000      1.409200000
| 42> H        0.827000000      2.433300000     -0.555300000
| 43> H       -3.027600000      2.447100000     -0.382200000
| 44> H       -3.674800000      1.394600000      0.675300000
| 45> H        2.401100000     -2.034500000      0.924800000
| 46> H        3.135300000      1.735700000     -1.039200000
| 47> H       -2.085200000     -2.578600000     -0.913200000
| 48> *
| 49> 
| 50>                          ****END OF INPUT****
================================================================================

                       *****************************
                       * Geometry Optimization Run *
                       *****************************

Geometry optimization settings:
Update method            Update   .... BFGS
Choice of coordinates    CoordSys .... (2022) Redundant Internals
Initial Hessian          InHess   .... Almloef's Model
Max. no of cycles        MaxIter  .... 69

Convergence Tolerances:
Energy Change            TolE     ....  5.0000e-06 Eh
Max. Gradient            TolMAXG  ....  3.0000e-04 Eh/bohr
RMS Gradient             TolRMSG  ....  1.0000e-04 Eh/bohr
Max. Displacement        TolMAXD  ....  4.0000e-03 bohr
RMS Displacement         TolRMSD  ....  2.0000e-03 bohr
Strict Convergence                .... False

------------------------------------------------------------------------------
                        ORCA OPTIMIZATION COORDINATE SETUP
------------------------------------------------------------------------------

The optimization will be done in redundant internal coordinates (2022)
Making redundant internal coordinates   ...  (2022 redundants) done
Evaluating the initial hessian          ...  (Almloef) done
Evaluating the coordinates              ...  done
Calculating the B-matrix                .... done
Calculating the G-matrix                .... done
The number of degrees of freedom        ....  107

    -----------------------------------------------------------------
                    Redundant Internal Coordinates


    -----------------------------------------------------------------
         Definition                    Initial Value    Approx d2E/dq
    -----------------------------------------------------------------
      1. B(C   5,C   4)                  1.5367         0.364545   
      2. B(C   5,N   3)                  1.4611         0.430967   
      3. B(C   6,C   4)                  1.5114         0.400028   
      4. B(C   7,C   6)                  1.3850         0.636465   
      5. B(C   8,C   6)                  1.3852         0.635983   
      6. B(C   9,O   2)                  1.2245         1.027889   
      7. B(C   9,O   1)                  1.3585         0.628240   
      8. B(C   9,C   5)                  1.5190         0.388916   
      9. B(C  10,C   7)                  1.3948         0.613953   
     10. B(C  11,C   8)                  1.3949         0.613653   
     11. B(C  12,C  11)                  1.3949         0.613575   
     12. B(C  12,C  10)                  1.3950         0.613430   
     13. B(C  12,Cl  0)                  1.7208         0.415830   
     14. B(H  13,C   4)                  1.0987         0.348720   
     15. B(H  14,C   4)                  1.0991         0.348255   
     16. B(H  15,C   5)                  1.0961         0.352076   
     17. B(H  16,C   7)                  1.0861         0.365238   
     18. B(H  17,C   8)                  1.0863         0.365083   
     19. B(H  18,N   3)                  1.0196         0.417670   
     20. B(H  19,N   3)                  1.0199         0.417294   
     21. B(H  20,C  10)                  1.0870         0.364032   
     22. B(H  21,C  11)                  1.0870         0.364044   
     23. B(H  22,O   1)                  0.9808         0.481706   
     24. A(C   9,O   1,H  22)          111.8835         0.366123   
     25. A(H  18,N   3,H  19)          105.7674         0.299811   
     26. A(C   5,N   3,H  19)          109.8540         0.335329   
     27. A(C   5,N   3,H  18)          109.5528         0.335379   
     28. A(H  13,C   4,H  14)          105.3441         0.287867   
     29. A(C   5,C   4,H  14)          110.3574         0.321254   
     30. A(C   5,C   4,H  13)          110.7608         0.321324   
     31. A(C   5,C   4,C   6)          112.8678         0.366094   
     32. A(C   6,C   4,H  13)          109.4284         0.326260   
     33. A(C   6,C   4,H  14)          107.7676         0.326189   
     34. A(C   4,C   5,C   9)          112.0984         0.364333   
     35. A(C   4,C   5,H  15)          111.8593         0.321829   
     36. A(N   3,C   5,H  15)          107.5052         0.328829   
     37. A(C   9,C   5,H  15)          108.7566         0.325264   
     38. A(N   3,C   5,C   9)          106.6136         0.372611   
     39. A(N   3,C   5,C   4)          109.7705         0.368487   
     40. A(C   4,C   6,C   7)          119.2955         0.403345   
     41. A(C   7,C   6,C   8)          121.4163         0.438125   
     42. A(C   4,C   6,C   8)          119.2882         0.403291   
     43. A(C   6,C   7,H  16)          121.2916         0.355332   
     44. A(C  10,C   7,H  16)          119.4151         0.353170   
     45. A(C   6,C   7,C  10)          119.2930         0.435350   
     46. A(C  11,C   8,H  17)          119.4684         0.353115   
     47. A(C   6,C   8,H  17)          121.2363         0.355261   
     48. A(C   6,C   8,C  11)          119.2951         0.435252   
     49. A(O   1,C   9,O   2)          122.7713         0.470695   
     50. A(O   2,C   9,C   5)          124.8516         0.434275   
     51. A(O   1,C   9,C   5)          112.3573         0.397866   
     52. A(C   7,C  10,C  12)          120.0079         0.432472   
     53. A(C  12,C  10,H  20)          120.7988         0.352921   
     54. A(C   7,C  10,H  20)          119.1933         0.352972   
     55. A(C   8,C  11,C  12)          119.9961         0.432453   
     56. A(C  12,C  11,H  21)          120.8110         0.352937   
     57. A(C   8,C  11,H  21)          119.1929         0.352945   
     58. A(Cl  0,C  12,C  10)          120.0083         0.421619   
     59. A(C  10,C  12,C  11)          119.9916         0.432424   
     60. A(Cl  0,C  12,C  11)          120.0001         0.421637   
     61. D(C   9,C   5,C   4,C   6)     81.9374         0.010644   
     62. D(C   9,C   5,N   3,H  19)     67.0135         0.015835   
     63. D(C   9,C   5,C   4,H  13)    -41.1522         0.010644   
     64. D(C   9,C   5,C   4,H  14)   -157.4158         0.010644   
     65. D(N   3,C   5,C   4,H  13)     77.1327         0.010644   
     66. D(C   9,C   5,N   3,H  18)   -177.2122         0.015835   
     67. D(N   3,C   5,C   4,H  14)    -39.1310         0.010644   
     68. D(C   4,C   5,N   3,H  18)     61.1583         0.015835   
     69. D(N   3,C   5,C   4,C   6)   -159.7778         0.010644   
     70. D(H  15,C   5,N   3,H  18)    -60.7276         0.015835   
     71. D(C   4,C   5,N   3,H  19)    -54.6160         0.015835   
     72. D(C   7,C   6,C   4,H  14)    147.8402         0.011876   
     73. D(C   7,C   6,C   4,H  13)     33.7816         0.011876   
     74. D(C   7,C   6,C   4,C   5)    -90.0456         0.011876   
     75. D(C   8,C   6,C   4,C   5)     90.0040         0.011876   
     76. D(C   8,C   6,C   4,H  13)   -146.1688         0.011876   
     77. D(H  16,C   7,C   6,C   8)    179.8175         0.028124   
     78. D(H  16,C   7,C   6,C   4)     -0.1318         0.028124   
     79. D(C  10,C   7,C   6,C   8)      0.0038         0.028124   
     80. D(C  10,C   7,C   6,C   4)   -179.9455         0.028124   
     81. D(H  17,C   8,C   6,C   7)    179.8429         0.028079   
     82. D(C  11,C   8,C   6,C   7)      0.0030         0.028079   
     83. D(C  11,C   8,C   6,C   4)    179.9523         0.028079   
     84. D(H  17,C   8,C   6,C   4)     -0.2078         0.028079   
     85. D(O   2,C   9,C   5,N   3)    -31.8336         0.011256   
     86. D(O   1,C   9,C   5,H  15)     30.9304         0.011256   
     87. D(O   1,C   9,C   5,C   4)    -93.2822         0.011256   
     88. D(O   1,C   9,C   5,N   3)    146.5773         0.011256   
     89. D(C   5,C   9,O   1,H  22)   -179.2021         0.029014   
     90. D(O   2,C   9,C   5,C   4)     88.3069         0.011256   
     91. D(O   2,C   9,O   1,H  22)     -0.7530         0.029014   
     92. D(H  20,C  10,C   7,H  16)      0.1422         0.026053   
     93. D(H  20,C  10,C   7,C   6)    179.9594         0.026053   
     94. D(C  12,C  10,C   7,H  16)   -179.8264         0.026053   
     95. D(C  12,C  10,C   7,C   6)     -0.0091         0.026053   
     96. D(H  21,C  11,C   8,H  17)      0.1220         0.026026   
     97. D(H  21,C  11,C   8,C   6)    179.9648         0.026026   
     98. D(C  12,C  11,C   8,H  17)   -179.8472         0.026026   
     99. D(C  12,C  11,C   8,C   6)     -0.0044         0.026026   
    100. D(C  10,C  12,C  11,C   8)     -0.0009         0.026019   
    101. D(Cl  0,C  12,C  11,H  21)      0.0538         0.026019   
    102. D(Cl  0,C  12,C  11,C   8)   -179.9775         0.026019   
    103. D(C  11,C  12,C  10,H  20)   -179.9603         0.026006   
    104. D(C  11,C  12,C  10,C   7)      0.0077         0.026006   
    105. D(Cl  0,C  12,C  10,H  20)      0.0163         0.026006   
    106. D(C  10,C  12,C  11,H  21)   -179.9696         0.026019   
    107. D(Cl  0,C  12,C  10,C   7)    179.9843         0.026006   
    -----------------------------------------------------------------

Number of atoms                         .... 23
Number of degrees of freedom            .... 107


         *************************************************************
         *                GEOMETRY OPTIMIZATION CYCLE   1            *
         *************************************************************
---------------------------------
CARTESIAN COORDINATES (ANGSTROEM)
---------------------------------
  Cl     4.539600   -0.687700   -0.428400
  O     -1.776100   -1.650500   -0.984300
  O     -3.496800   -1.183400    0.418100
  N     -3.279000    1.466300   -0.261900
  C     -1.090700    1.024100    0.753400
  C     -2.078900    0.638500   -0.358400
  C      0.326700    0.592600    0.455000
  C      0.756700   -0.656400    0.871200
  C      1.168100    1.455300   -0.228000
  C     -2.536500   -0.805200   -0.240800
  C      2.065100   -1.054100    0.596800
  C      2.476600    1.057600   -0.502600
  C      2.925200   -0.197200   -0.090200
  H     -1.405700    0.602500    1.717900
  H     -1.085900    2.113400    0.899800
  H     -1.651400    0.792600   -1.355900
  H      0.096100   -1.330100    1.409200
  H      0.827000    2.433300   -0.555300
  H     -3.027600    2.447100   -0.382200
  H     -3.674800    1.394600    0.675300
  H      2.401100   -2.034500    0.924800
  H      3.135300    1.735700   -1.039200
  H     -2.085200   -2.578600   -0.913200

----------------------------
CARTESIAN COORDINATES (A.U.)
----------------------------
  NO LB      ZA    FRAG     MASS         X           Y           Z
   0 Cl   17.0000    0    35.453    8.578601   -1.299565   -0.809559
   1 O     8.0000    0    15.999   -3.356343   -3.118993   -1.860057
   2 O     8.0000    0    15.999   -6.607994   -2.236302    0.790094
   3 N     7.0000    0    14.007   -6.196412    2.770905   -0.494919
   4 C     6.0000    0    12.011   -2.061124    1.935269    1.423720
   5 C     6.0000    0    12.011   -3.928552    1.206590   -0.677278
   6 C     6.0000    0    12.011    0.617374    1.119852    0.859825
   7 C     6.0000    0    12.011    1.429956   -1.240416    1.646329
   8 C     6.0000    0    12.011    2.207389    2.750118   -0.430858
   9 C     6.0000    0    12.011   -4.793290   -1.521607   -0.455046
  10 C     6.0000    0    12.011    3.902473   -1.991960    1.127789
  11 C     6.0000    0    12.011    4.680096    1.998574   -0.949776
  12 C     6.0000    0    12.011    5.527827   -0.372654   -0.170453
  13 H     1.0000    0     1.008   -2.656388    1.138560    3.246361
  14 H     1.0000    0     1.008   -2.052054    3.993747    1.700376
  15 H     1.0000    0     1.008   -3.120694    1.497797   -2.562280
  16 H     1.0000    0     1.008    0.181603   -2.513525    2.663002
  17 H     1.0000    0     1.008    1.562804    4.598271   -1.049365
  18 H     1.0000    0     1.008   -5.721335    4.624349   -0.722253
  19 H     1.0000    0     1.008   -6.944366    2.635412    1.276132
  20 H     1.0000    0     1.008    4.537421   -3.844648    1.747619
  21 H     1.0000    0     1.008    5.924858    3.279998   -1.963803
  22 H     1.0000    0     1.008   -3.940457   -4.872848   -1.725698

--------------------------------
INTERNAL COORDINATES (ANGSTROEM)
--------------------------------
 Cl     0   0   0     0.000000000000     0.00000000     0.00000000
 O      1   0   0     6.412805559192     0.00000000     0.00000000
 O      2   1   0     2.268417214712   131.49488379     0.00000000
 N      3   2   1     2.744220641639    89.16492430    75.14602635
 C      4   3   2     2.452556180804    78.12033840   298.10899122
 C      4   3   2     1.461097224691    62.25800216   332.83242632
 C      5   4   3     1.511376051815   143.75690222    91.35829514
 C      7   5   4     1.384963335255   119.29547610   250.82024516
 C      7   5   4     1.385169393973   119.28821783    70.86983671
 C      3   2   1     1.224483785111    30.23573903    58.03437244
 C      8   7   5     1.394765646982   119.29300360   180.05447889
 C      9   7   5     1.394898813535   119.29514637   179.95228475
 C     12   9   7     1.394933245715   119.99614620     0.00000000
 H      5   4   3     1.098741011340   100.18227168   306.60821794
 H      5   4   3     1.099104403594    83.12778970   202.18107089
 H      6   4   3     1.096133801139   107.50524131   129.08927814
 H      8   7   5     1.086143659927   121.29163467   359.86820012
 H      9   7   5     1.086258947029   121.23625565   359.79220160
 H      4   3   2     1.019628702028   167.84765092   283.08328043
 H      4   3   2     1.019873702965    70.95023532   206.84728781
 H     11   8   7     1.087043770968   119.19331010   179.95941125
 H     12   9   7     1.087034893644   119.19288129   179.96479221
 H      2   1  13     0.980799485114   116.49789511   219.93910771

---------------------------
INTERNAL COORDINATES (A.U.)
---------------------------
 Cl     0   0   0     0.000000000000     0.00000000     0.00000000
 O      1   0   0    12.118446256960     0.00000000     0.00000000
 O      2   1   0     4.286687293277   131.49488379     0.00000000
 N      3   2   1     5.185825463752    89.16492430    75.14602635
 C      4   3   2     4.634659509775    78.12033840   298.10899122
 C      4   3   2     2.761073609699    62.25800216   332.83242632
 C      5   4   3     2.856086823298   143.75690222    91.35829514
 C      7   5   4     2.617201409154   119.29547610   250.82024516
 C      7   5   4     2.617590803699   119.28821783    70.86983671
 C      3   2   1     2.313939009287    30.23573903    58.03437244
 C      8   7   5     2.635725093797   119.29300360   180.05447889
 C      9   7   5     2.635976742112   119.29514637   179.95228475
 C     12   9   7     2.636041809503   119.99614620     0.00000000
 H      5   4   3     2.076319603540   100.18227168   306.60821794
 H      5   4   3     2.077006315380    83.12778970   202.18107089
 H      6   4   3     2.071392690287   107.50524131   129.08927814
 H      8   7   5     2.052514059357   121.29163467   359.86820012
 H      9   7   5     2.052731920406   121.23625565   359.79220160
 H      4   3   2     1.926819005119   167.84765092   283.08328043
 H      4   3   2     1.927281989792    70.95023532   206.84728781
 H     11   8   7     2.054215022714   119.19331010   179.95941125
 H     12   9   7     2.054198247004   119.19288129   179.96479221
 H      2   1  13     1.853442419157   116.49789511   219.93910771

---------------------
BASIS SET INFORMATION
---------------------
There are 5 groups of distinct atoms

 Group   1 Type Cl  : 14s9p3d1f contracted to 5s5p3d1f pattern {73211/51111/111/1}
 Group   2 Type O   : 11s6p2d1f contracted to 5s3p2d1f pattern {62111/411/11/1}
 Group   3 Type N   : 11s6p2d1f contracted to 5s3p2d1f pattern {62111/411/11/1}
 Group   4 Type C   : 11s6p2d1f contracted to 5s3p2d1f pattern {62111/411/11/1}
 Group   5 Type H   : 5s2p1d contracted to 3s2p1d pattern {311/11/1}

Atom   0Cl   basis set group =>   1
Atom   1O    basis set group =>   2
Atom   2O    basis set group =>   2
Atom   3N    basis set group =>   3
Atom   4C    basis set group =>   4
Atom   5C    basis set group =>   4
Atom   6C    basis set group =>   4
Atom   7C    basis set group =>   4
Atom   8C    basis set group =>   4
Atom   9C    basis set group =>   4
Atom  10C    basis set group =>   4
Atom  11C    basis set group =>   4
Atom  12C    basis set group =>   4
Atom  13H    basis set group =>   5
Atom  14H    basis set group =>   5
Atom  15H    basis set group =>   5
Atom  16H    basis set group =>   5
Atom  17H    basis set group =>   5
Atom  18H    basis set group =>   5
Atom  19H    basis set group =>   5
Atom  20H    basis set group =>   5
Atom  21H    basis set group =>   5
Atom  22H    basis set group =>   5
---------------------------------
AUXILIARY/J BASIS SET INFORMATION
---------------------------------
There are 5 groups of distinct atoms

 Group   1 Type Cl  : 14s5p5d2f1g contracted to 8s4p3d1f1g pattern {71111111/2111/311/2/1}
 Group   2 Type O   : 12s5p4d2f1g contracted to 6s4p3d1f1g pattern {711111/2111/211/2/1}
 Group   3 Type N   : 12s5p4d2f1g contracted to 6s4p3d1f1g pattern {711111/2111/211/2/1}
 Group   4 Type C   : 12s5p4d2f1g contracted to 6s4p3d1f1g pattern {711111/2111/211/2/1}
 Group   5 Type H   : 5s2p1d contracted to 3s1p1d pattern {311/2/1}

Atom   0Cl   basis set group =>   1
Atom   1O    basis set group =>   2
Atom   2O    basis set group =>   2
Atom   3N    basis set group =>   3
Atom   4C    basis set group =>   4
Atom   5C    basis set group =>   4
Atom   6C    basis set group =>   4
Atom   7C    basis set group =>   4
Atom   8C    basis set group =>   4
Atom   9C    basis set group =>   4
Atom  10C    basis set group =>   4
Atom  11C    basis set group =>   4
Atom  12C    basis set group =>   4
Atom  13H    basis set group =>   5
Atom  14H    basis set group =>   5
Atom  15H    basis set group =>   5
Atom  16H    basis set group =>   5
Atom  17H    basis set group =>   5
Atom  18H    basis set group =>   5
Atom  19H    basis set group =>   5
Atom  20H    basis set group =>   5
Atom  21H    basis set group =>   5
Atom  22H    basis set group =>   5


           ************************************************************
           *        Program running with 2 parallel MPI-processes     *
           *              working on a common directory               *
           ************************************************************
------------------------------------------------------------------------------
                             ORCA STARTUP CALCULATIONS
                           -- RI-GTO INTEGRALS CHOSEN --
------------------------------------------------------------------------------
------------------------------------------------------------------------------
                   ___                                                        
                  /   \      - P O W E R E D   B Y -                         
                 /     \                                                     
                 |  |  |   _    _      __       _____    __    __             
                 |  |  |  | |  | |    /  \     |  _  \  |  |  /  |          
                  \  \/   | |  | |   /    \    | | | |  |  | /  /          
                 / \  \   | |__| |  /  /\  \   | |_| |  |  |/  /          
                |  |  |   |  __  | /  /__\  \  |    /   |      \           
                |  |  |   | |  | | |   __   |  |    \   |  |\   \          
                \     /   | |  | | |  |  |  |  | |\  \  |  | \   \       
                 \___/    |_|  |_| |__|  |__|  |_| \__\ |__|  \__/        
                                                                              
                      - O R C A' S   B I G   F R I E N D -                    
                                      &                                       
                       - I N T E G R A L  F E E D E R -                       
                                                                              
 v1 FN, 2020, v2 2021, v3 2022-2024                                           
------------------------------------------------------------------------------


----------------------
SHARK INTEGRAL PACKAGE
----------------------

Number of atoms                             ...     23
Number of basis functions                   ...    554
Number of shells                            ...    206
Maximum angular momentum                    ...      3
Integral batch strategy                     ... SHARK/LIBINT Hybrid
RI-J (if used) integral strategy            ... SPLIT-RIJ (Revised 2003 algorithm where possible)
Printlevel                                  ...      1
Contraction scheme used                     ... SEGMENTED contraction
Prescreening option                         ... SCHWARTZ
   Thresh                                   ... 2.500e-11
   Tcut                                     ... 2.500e-12
   Tpresel                                  ... 2.500e-12 
Coulomb Range Separation                    ... NOT USED
Exchange Range Separation                   ... NOT USED
Multipole approximations                    ... NOT USED
Finite Nucleus Model                        ... NOT USED
CABS basis                                  ... NOT available
Auxiliary Coulomb fitting basis             ... AVAILABLE
   # of basis functions in Aux-J            ...    749
   # of shells in Aux-J                     ...    247
   Maximum angular momentum in Aux-J        ...      4
Auxiliary J/K fitting basis                 ... NOT available
Auxiliary Correlation fitting basis         ... NOT available
Auxiliary 'external' fitting basis          ... NOT available

Checking pre-screening integrals            ... done (  0.0 sec) Dimension = 206
   => SHARK Basis and OBASIS are compatible. Storing Pre-screening
Shell pair information
Shell pair cut-off parameter TPreSel        ...   2.5e-12
Total number of shell pairs                 ...     21321
Shell pairs after pre-screening             ...     17040
Total number of primitive shell pairs       ...     60707
Primitive shell pairs kept                  ...     34753
          la=0 lb=0:   3587 shell pairs
          la=1 lb=0:   4753 shell pairs
          la=1 lb=1:   1619 shell pairs
          la=2 lb=0:   2695 shell pairs
          la=2 lb=1:   1823 shell pairs
          la=2 lb=2:    526 shell pairs
          la=3 lb=0:    959 shell pairs
          la=3 lb=1:    642 shell pairs
          la=3 lb=2:    362 shell pairs
          la=3 lb=3:     74 shell pairs

Checking whether 4 symmetric matrices of dimension 554 fit in memory
:Max Core in MB      =   3000.00
 MB in use           =     24.24
 MB left             =   2975.76
 MB needed           =      4.69
 Data fit in memory  = YES
Calculating RI/J V-Matrix + Cholesky decomp.... done (  0.0 sec)
Calculating Nuclear repulsion               ... done (  0.0 sec) ENN=    846.732281346335 Eh

Diagonalization of the overlap matrix:
Smallest eigenvalue                        ... 8.705e-06
Time for diagonalization                   ...    0.047 sec
Threshold for overlap eigenvalues          ... 1.000e-07
Number of eigenvalues below threshold      ... 0
Time for construction of square roots      ...    0.016 sec
Total time needed                          ...    0.066 sec

-------------------
DFT GRID GENERATION
-------------------

General Integration Accuracy     IntAcc      ... 4.388
Radial Grid Type                 RadialGrid  ... OptM3 with GC (2021)
Angular Grid (max. ang.)         AngularGrid ... 4 (Lebedev-302)
Angular grid pruning method      GridPruning ... 4 (adaptive)
Weight generation scheme         WeightScheme... mBecke (2022)
Basis function cutoff            BFCut       ... 1.0000e-11
Integration weight cutoff        WCut        ... 1.0000e-14
Partially contracted basis set               ... off
Rotationally invariant grid construction     ... off
Angular grids for H and He will be reduced by one unit

Total number of grid points                  ...   111341
Total number of batches                      ...     1751
Average number of points per batch           ...       63
Average number of grid points per atom       ...     4841

--------------------
COSX GRID GENERATION
--------------------

GRIDX 1
-------
General Integration Accuracy     IntAcc      ... 3.816
Radial Grid Type                 RadialGrid  ... OptM3 with GC (2021)
Angular Grid (max. ang.)         AngularGrid ... 1 (Lebedev-50)
Angular grid pruning method      GridPruning ... 4 (adaptive)
Weight generation scheme         WeightScheme... mBecke (2022)
Basis function cutoff            BFCut       ... 1.0000e-11
Integration weight cutoff        WCut        ... 1.0000e-14
Partially contracted basis set               ... on
Rotationally invariant grid construction     ... off
Angular grids for H and He will be reduced by one unit

Total number of grid points                  ...    15155
Total number of batches                      ...      132
Average number of points per batch           ...      114
Average number of grid points per atom       ...      659
UseSFitting                                  ... on

GRIDX 2
-------
General Integration Accuracy     IntAcc      ... 4.020
Radial Grid Type                 RadialGrid  ... OptM3 with GC (2021)
Angular Grid (max. ang.)         AngularGrid ... 2 (Lebedev-110)
Angular grid pruning method      GridPruning ... 4 (adaptive)
Weight generation scheme         WeightScheme... mBecke (2022)
Basis function cutoff            BFCut       ... 1.0000e-11
Integration weight cutoff        WCut        ... 1.0000e-14
Partially contracted basis set               ... on
Rotationally invariant grid construction     ... off
Angular grids for H and He will be reduced by one unit

Total number of grid points                  ...    30780
Total number of batches                      ...      252
Average number of points per batch           ...      122
Average number of grid points per atom       ...     1338
UseSFitting                                  ... on

GRIDX 3
-------
General Integration Accuracy     IntAcc      ... 4.338
Radial Grid Type                 RadialGrid  ... OptM3 with GC (2021)
Angular Grid (max. ang.)         AngularGrid ... 3 (Lebedev-194)
Angular grid pruning method      GridPruning ... 4 (adaptive)
Weight generation scheme         WeightScheme... mBecke (2022)
Basis function cutoff            BFCut       ... 1.0000e-11
Integration weight cutoff        WCut        ... 1.0000e-14
Partially contracted basis set               ... on
Rotationally invariant grid construction     ... off
Angular grids for H and He will be reduced by one unit

Total number of grid points                  ...    68139
Total number of batches                      ...      544
Average number of points per batch           ...      125
Average number of grid points per atom       ...     2963
UseSFitting                                  ... on
Grids setup in   3.7 sec
Initializing property integral containers    ... done (  0.0 sec)

SHARK setup successfully completed in   4.3 seconds

Maximum memory used throughout the entire STARTUP-calculation: 65.2 MB


           ************************************************************
           *        Program running with 2 parallel MPI-processes     *
           *              working on a common directory               *
           ************************************************************
-------------------------------------------------------------------------------
                                 ORCA GUESS
                   Start orbitals & Density for SCF / CASSCF
-------------------------------------------------------------------------------

------------
SCF SETTINGS
------------
Hamiltonian:
 Density Functional     Method          .... DFT(GTOs)
 Exchange Functional    Exchange        .... B88
   X-Alpha parameter    XAlpha          ....  0.666667
   Becke's b parameter  XBeta           ....  0.004200
 Correlation Functional Correlation     .... LYP
 LDA part of GGA corr.  LDAOpt          .... VWN-5
 Gradients option       PostSCFGGA      .... off
 Hybrid DFT is turned on
   Fraction HF Exchange ScalHFX         ....  0.200000
   Scaling of DF-GGA-X  ScalDFX         ....  0.720000
   Scaling of DF-GGA-C  ScalDFC         ....  0.810000
   Scaling of DF-LDA-C  ScalLDAC        ....  1.000000
   Perturbative correction              ....  0.000000
   NL short-range parameter             ....  4.800000
 RI-approximation to the Coulomb term is turned on
   Number of AuxJ basis functions       .... 749
   RIJ-COSX (HFX calculated with COS-X)).... on


General Settings:
 Integral files         IntName         .... /kaggle/working/Phe-Cl-1/Phe-Cl_InterFrag
 Hartree-Fock type      HFTyp           .... RHF
 Total Charge           Charge          ....    0
 Multiplicity           Mult            ....    1
 Number of Electrons    NEL             ....  104
 Basis Dimension        Dim             ....  554
 Nuclear Repulsion      ENuc            ....    846.7322813463 Eh

Convergence Acceleration:
 AO-DIIS                CNVDIIS         .... on
   Start iteration      DIISMaxIt       ....    12
   Startup error        DIISStart       ....  0.200000
   # of expansion vecs  DIISMaxEq       ....     5
   Bias factor          DIISBfac        ....   1.050
   Max. coefficient     DIISMaxC        ....  10.000
 MO-DIIS                CNVKDIIS        .... off
 Trust-Rad. Augm. Hess. CNVTRAH         .... auto
   Auto Start mean grad. ratio tolernc. ....  1.125000
   Auto Start start iteration           ....    50
   Auto Start num. interpolation iter.  ....    10
   Max. Number of Micro iterations      ....    24
   Max. Number of Macro iterations      .... Maxiter - #DIIS iter
   Number of Davidson start vectors     ....     2
   Converg. threshold    (grad. norm)   ....   1.000e-05
   Grad. Scal. Fac. for Micro threshold ....   0.100
   Minimum threshold for Micro iter.    ....   1.000e-02
   NR start threshold (gradient norm)   ....   1.000e-04
   Initial trust radius                 ....   0.400
   Minimum AH scaling param. (alpha)    ....   1.000
   Maximum AH scaling param. (alpha)    .... 1000.000
   Quad. conv. algorithm                .... NR
   White noise on init. David. guess    .... on
   Maximum white noise                  ....   0.010
   Pseudo random numbers                .... off
   Inactive MOs                         .... canonical
   Orbital update algorithm             .... Taylor
   Preconditioner                       .... Diag
   Full preconditioner red. dimension   ....   250
 SOSCF                 CNVSOSCF           .... on
   Start iteration     SOSCFMaxIt         ....   150
   Startup grad/error  SOSCFStart         ....  0.000330
   Hessian update      SOSCFHessUp        .... L-BFGS
   Autom. constraints  SOSCFAutoConstrain .... off
 Level Shifting         CNVShift        .... on
   Level shift para.    LevelShift      ....    0.2500
   Turn off err/grad.   ShiftErr        ....    0.0010
 Zerner damping         CNVZerner       .... off
 Static damping         CNVDamp         .... on
   Fraction old density DampFac         ....    0.7000
   Max. Damping (<1)    DampMax         ....    0.9800
   Min. Damping (>=0)   DampMin         ....    0.0000
   Turn off err/grad.   DampErr         ....    0.1000

SCF Procedure:
 Maximum # iterations   MaxIter         ....  1000
 SCF integral mode      SCFMode         .... Direct
   Integral package                     .... SHARK and LIBINT hybrid scheme
 Reset frequency        DirectResetFreq ....    20
 Integral Threshold     Thresh          ....  2.500e-11 Eh
 Primitive CutOff       TCut            ....  2.500e-12 Eh

Convergence Tolerance:
 Convergence Check Mode ConvCheckMode   .... Total+1el-Energy
 Convergence forced     ConvForced      .... 0
 Energy Change          TolE            ....  1.000e-08 Eh
 1-El. energy change                    ....  1.000e-05 Eh
 Orbital Gradient       TolG            ....  1.000e-05
 Orbital Rotation angle TolX            ....  1.000e-05
 DIIS Error             TolErr          ....  5.000e-07

------------------------------
INITIAL GUESS: MODEL POTENTIAL
------------------------------
Loading Hartree-Fock densities                     ... done
Calculating cut-offs                               ... done
Initializing the effective Hamiltonian             ... done
Setting up the integral package (SHARK)            ... done
Starting the Coulomb interaction                   ... done (   0.8 sec)
Making the grid                                    ... done (   0.4 sec)
Mapping shells                                     ... done
Starting the XC term evaluation                    ... done (   0.6 sec)
  promolecular density results
     # of electrons  =    104.002289148
     EX              =    -99.760504860
     EC              =     -3.675942109
     EX+EC           =   -103.436446969
Transforming the Hamiltonian                       ... done (   0.0 sec)
Diagonalizing the Hamiltonian                      ... done (   0.1 sec)
Back transforming the eigenvectors                 ... done (   0.0 sec)
Now organizing SCF variables                       ... done
                      ------------------
                      INITIAL GUESS DONE (   1.9 sec)
                      ------------------
             **** ENERGY FILE WAS UPDATED (/kaggle/working/Phe-Cl-1/Phe-Cl_InterFrag.en.tmp) ****
Finished Guess after   2.4 sec
Maximum memory used throughout the entire GUESS-calculation: 46.5 MB


           ************************************************************
           *        Program running with 2 parallel MPI-processes     *
           *              working on a common directory               *
           ************************************************************

-------------------------------------------------------------------------------------------
                                      ORCA LEAN-SCF
                              memory conserving SCF solver
-------------------------------------------------------------------------------------------

--------------------
CPCM SOLVATION MODEL
--------------------
CPCM parameters:
  Epsilon                                         ...      78.3550
  Refrac                                          ...       1.3328
  Rsolv                                           ...       1.3000
  Surface type                                    ... GAUSSIAN VDW
  Discretization scheme                           ... Constant charge density
    Threshold for H atoms                         ...       5.0000 (charges/Ang^2)
    Threshold for non-H atoms                     ...       5.0000 (charges/Ang^2)
  Epsilon function type                           ...         CPCM
Solvent:                                          ... WATER
SMD-CDS solvent descriptors:
  Soln                                            ...       1.3328
  Soln25                                          ...       1.3323
  Sola                                            ...       0.0000
  Solb                                            ...       0.0000
  Solg                                            ...       0.0000
  Solc                                            ...       0.0000
  Solh                                            ...       0.0000
Radii:
  Scheme                                          ... Element-dependent radii
  Radius for Cl used is    4.4975 Bohr (=   2.3800 Ang.)
  Radius for O  used is    2.8724 Bohr (=   1.5200 Ang.)
  Radius for N  used is    3.5716 Bohr (=   1.8900 Ang.)
  Radius for C  used is    3.4960 Bohr (=   1.8500 Ang.)
  Radius for H  used is    2.2677 Bohr (=   1.2000 Ang.)
Calculating surface                               ...        done! (  0.0s)
Cavity surface points                             ...         1846
Cavity Volume                                     ...    1417.7866
Cavity Surface-area                               ...     832.5094
Calculating surface distance matrix               ...        done! (  0.1s)
Performing Cholesky decomposition & store         ...        done! (  0.1s)
Overall time for CPCM initialization              ...                 0.2s

----------------------------------------D-I-I-S--------------------------------------------
Iteration    Energy (Eh)           Delta-E    RMSDP     MaxDP     DIISErr   Damp  Time(sec)
-------------------------------------------------------------------------------------------
               ***  Starting incremental Fock matrix formation  ***
    1    -1013.8758034736935087     0.00e+00  1.56e-03  7.41e-02  2.84e-01  0.700  22.3
    2    -1014.0672140188490857    -1.91e-01  1.24e-03  7.17e-02  1.27e-01  0.700  12.1
                               ***Turning on AO-DIIS***
    3    -1014.1393561307755817    -7.21e-02  5.67e-04  2.24e-02  3.49e-02  0.700  11.9
    4    -1014.1830440859313285    -4.37e-02  1.10e-03  3.41e-02  1.58e-02  0.000  11.3
    5    -1014.2799573690109582    -9.69e-02  2.79e-04  1.61e-02  7.10e-03  0.000  11.8
    6    -1014.2805507279296080    -5.93e-04  1.05e-04  5.64e-03  3.13e-03  0.000  10.8
    7    -1014.2805883143104211    -3.76e-05  4.40e-05  1.45e-03  7.67e-04  0.000  10.1
               *** Restarting incremental Fock matrix formation ***
                             ****Resetting DIIS****
    8    -1014.2806101402956074    -2.18e-05  3.95e-05  1.34e-03  7.74e-04  0.000  22.9
    9    -1014.2806084514282929     1.69e-06  8.29e-06  4.77e-04  1.46e-03  0.000  15.5
                              *** Initializing SOSCF ***
---------------------------------------S-O-S-C-F--------------------------------------
Iteration    Energy (Eh)           Delta-E    RMSDP     MaxDP     MaxGrad    Time(sec)
--------------------------------------------------------------------------------------
   10    -1014.2806115577831179    -3.11e-06  2.92e-06  8.26e-05  1.08e-04     7.8
               *** Restarting incremental Fock matrix formation ***
   11    -1014.2806115050426570     5.27e-08  2.61e-06  8.68e-05  1.54e-05    22.4
   12    -1014.2806114627172747     4.23e-08  1.34e-06  5.72e-05  3.01e-05    10.9
   13    -1014.2806115172487580    -5.45e-08  3.82e-06  1.52e-04  3.58e-06     9.7
   14    -1014.2806115015763453     1.57e-08  8.36e-07  2.71e-05  6.73e-06     9.0
   15    -1014.2806115254307997    -2.39e-08  1.85e-06  8.24e-05  6.97e-07     8.1
                  *** Gradient check signals convergence ***

               *****************************************************
               *                     SUCCESS                       *
               *           SCF CONVERGED AFTER  15 CYCLES          *
               *****************************************************

Recomputing exchange energy using gridx3       ... done (   36.577 sec)
Old exchange energy                            :    -20.175085710 Eh
New exchange energy                            :    -20.175114741 Eh
Exchange energy change after final integration :     -0.000029032 Eh
Total energy after final integration           :  -1014.280640579 Eh

SMD CDS free energy correction energy :                 4.45879     Kcal/mol
Total Energy after SMD CDS correction =             -1014.273535040 Eh
             **** ENERGY FILE WAS UPDATED (/kaggle/working/Phe-Cl-1/Phe-Cl_InterFrag.en.tmp) ****

----------------
TOTAL SCF ENERGY
----------------

Total Energy       :      -1014.27353503993186 Eh          -27599.78603 eV

Components:
Nuclear Repulsion  :        846.73228134633530 Eh           23040.75674 eV
Electronic Energy  :      -1860.97882410639636 Eh          -50639.80828 eV
One Electron Energy:      -3069.99233044974471 Eh          -83538.73834 eV
Two Electron Energy:       1209.01350634334835 Eh           32898.93006 eV
CPCM Dielectric    :         -0.03406878714931 Eh              -0.92706 eV
SMD CDS (Gcds)     :          0.00710553893602 Eh               0.19335 eV

Virial components:
Potential Energy   :      -2025.42090552850505 Eh          -55114.50481 eV
Kinetic Energy     :       1011.14737048857307 Eh           27514.71877 eV
Virial Ratio       :          2.00309170022353

DFT components:
N(Alpha)           :       51.999949916721 electrons
N(Beta)            :       51.999949916721 electrons
N(Total)           :      103.999899833442 electrons
E(X)               :      -80.172886203146 Eh       
E(C)               :       -4.329052998707 Eh       
E(XC)              :      -84.501939201853 Eh       

CPCM Solvation Model Properties:
Surface-charge          :         -0.04168423872134
Corrected charge        :         -0.00000000000000
Outlying charge corr.   :          0.00011033916071 Eh               0.00300 eV
Free-energy (cav+disp)  :          0.00710553893602 Eh               0.19335 eV

---------------
SCF CONVERGENCE
---------------

  Last Energy change         ...    2.3854e-08  Tolerance :   1.0000e-08
  Last MAX-Density change    ...    8.2393e-05  Tolerance :   1.0000e-07
  Last RMS-Density change    ...    1.8468e-06  Tolerance :   5.0000e-09
  Last DIIS Error            ...    1.0771e-04  Tolerance :   5.0000e-07
  Last Orbital Gradient      ...    6.9714e-07  Tolerance :   1.0000e-05
  Last Orbital Rotation      ...    8.9346e-07  Tolerance :   1.0000e-05


----------------
ORBITAL ENERGIES
----------------

  NO   OCC          E(Eh)            E(eV) 
   0   2.0000    -101.525847     -2762.6587 
   1   2.0000     -19.176576      -521.8212 
   2   2.0000     -19.128112      -520.5024 
   3   2.0000     -14.292742      -388.9253 
   4   2.0000     -10.316084      -280.7149 
   5   2.0000     -10.230353      -278.3821 
   6   2.0000     -10.214797      -277.9588 
   7   2.0000     -10.180539      -277.0265 
   8   2.0000     -10.180282      -277.0195 
   9   2.0000     -10.178818      -276.9797 
  10   2.0000     -10.174700      -276.8677 
  11   2.0000     -10.174183      -276.8536 
  12   2.0000     -10.171160      -276.7713 
  13   2.0000      -9.458411      -257.3765 
  14   2.0000      -7.219644      -196.4565 
  15   2.0000      -7.211614      -196.2380 
  16   2.0000      -7.211276      -196.2288 
  17   2.0000      -1.105305       -30.0769 
  18   2.0000      -1.022075       -27.8121 
  19   2.0000      -0.896150       -24.3855 
  20   2.0000      -0.891301       -24.2535 
  21   2.0000      -0.843213       -22.9450 
  22   2.0000      -0.769273       -20.9330 
  23   2.0000      -0.752926       -20.4882 
  24   2.0000      -0.717345       -19.5199 
  25   2.0000      -0.666076       -18.1249 
  26   2.0000      -0.617537       -16.8040 
  27   2.0000      -0.596366       -16.2279 
  28   2.0000      -0.577188       -15.7061 
  29   2.0000      -0.529419       -14.4062 
  30   2.0000      -0.507126       -13.7996 
  31   2.0000      -0.497159       -13.5284 
  32   2.0000      -0.477268       -12.9871 
  33   2.0000      -0.467561       -12.7230 
  34   2.0000      -0.459142       -12.4939 
  35   2.0000      -0.443115       -12.0578 
  36   2.0000      -0.430688       -11.7196 
  37   2.0000      -0.425567       -11.5803 
  38   2.0000      -0.417198       -11.3525 
  39   2.0000      -0.405021       -11.0212 
  40   2.0000      -0.396500       -10.7893 
  41   2.0000      -0.383322       -10.4307 
  42   2.0000      -0.370623       -10.0852 
  43   2.0000      -0.349662        -9.5148 
  44   2.0000      -0.347274        -9.4498 
  45   2.0000      -0.336240        -9.1496 
  46   2.0000      -0.329985        -8.9793 
  47   2.0000      -0.314731        -8.5643 
  48   2.0000      -0.295480        -8.0404 
  49   2.0000      -0.262346        -7.1388 
  50   2.0000      -0.254953        -6.9376 
  51   2.0000      -0.234658        -6.3854 
  52   0.0000      -0.020586        -0.5602 
  53   0.0000      -0.018366        -0.4998 
  54   0.0000      -0.009241        -0.2515 
  55   0.0000       0.032010         0.8710 
  56   0.0000       0.047334         1.2880 
  57   0.0000       0.053324         1.4510 
  58   0.0000       0.076365         2.0780 
  59   0.0000       0.081345         2.2135 
  60   0.0000       0.093101         2.5334 
  61   0.0000       0.099844         2.7169 
  62   0.0000       0.104080         2.8322 
  63   0.0000       0.111640         3.0379 
  64   0.0000       0.130575         3.5531 
  65   0.0000       0.135454         3.6859 
  66   0.0000       0.143824         3.9137 
  67   0.0000       0.148869         4.0509 
  68   0.0000       0.154303         4.1988 
  69   0.0000       0.180427         4.9097 
  70   0.0000       0.187223         5.0946 
  71   0.0000       0.199024         5.4157 
  72   0.0000       0.199851         5.4382 
  73   0.0000       0.202353         5.5063 
  74   0.0000       0.221534         6.0283 
  75   0.0000       0.227181         6.1819 
  76   0.0000       0.231278         6.2934 
  77   0.0000       0.235391         6.4053 
  78   0.0000       0.245420         6.6782 
  79   0.0000       0.250758         6.8235 
  80   0.0000       0.257654         7.0111 
  81   0.0000       0.267962         7.2916 
  82   0.0000       0.280745         7.6395 
  83   0.0000       0.286947         7.8082 
  84   0.0000       0.297328         8.0907 
  85   0.0000       0.299599         8.1525 
  86   0.0000       0.308942         8.4067 
  87   0.0000       0.321267         8.7421 
  88   0.0000       0.326133         8.8745 
  89   0.0000       0.327550         8.9131 
  90   0.0000       0.330232         8.9861 
  91   0.0000       0.334816         9.1108 
  92   0.0000       0.344178         9.3656 
  93   0.0000       0.351796         9.5729 
  94   0.0000       0.354580         9.6486 
  95   0.0000       0.355570         9.6755 
  96   0.0000       0.370138        10.0720 
  97   0.0000       0.372062        10.1243 
  98   0.0000       0.379118        10.3163 
  99   0.0000       0.380477        10.3533 
 100   0.0000       0.386285        10.5113 
 101   0.0000       0.398805        10.8520 
 102   0.0000       0.407920        11.1001 
 103   0.0000       0.418424        11.3859 
 104   0.0000       0.422577        11.4989 
 105   0.0000       0.432016        11.7558 
 106   0.0000       0.438377        11.9288 
 107   0.0000       0.443950        12.0805 
 108   0.0000       0.447098        12.1662 
 109   0.0000       0.450660        12.2631 
 110   0.0000       0.457690        12.4544 
 111   0.0000       0.462978        12.5983 
 112   0.0000       0.467066        12.7095 
 113   0.0000       0.470161        12.7937 
 114   0.0000       0.485940        13.2231 
 115   0.0000       0.493186        13.4203 
 116   0.0000       0.500253        13.6126 
 117   0.0000       0.511816        13.9272 
 118   0.0000       0.516892        14.0653 
 119   0.0000       0.525283        14.2937 
 120   0.0000       0.526913        14.3380 
 121   0.0000       0.543064        14.7775 
 122   0.0000       0.552705        15.0399 
 123   0.0000       0.557139        15.1605 
 124   0.0000       0.566042        15.4028 
 125   0.0000       0.577911        15.7258 
 126   0.0000       0.588906        16.0249 
 127   0.0000       0.593963        16.1626 
 128   0.0000       0.600002        16.3269 
 129   0.0000       0.609486        16.5850 
 130   0.0000       0.627512        17.0755 
 131   0.0000       0.641881        17.4665 
 132   0.0000       0.643516        17.5110 
 133   0.0000       0.651625        17.7316 
 134   0.0000       0.661830        18.0093 
 135   0.0000       0.678994        18.4764 
 136   0.0000       0.685360        18.6496 
 137   0.0000       0.698028        18.9943 
 138   0.0000       0.705666        19.2021 
 139   0.0000       0.718936        19.5632 
 140   0.0000       0.726496        19.7690 
 141   0.0000       0.734765        19.9940 
 142   0.0000       0.742294        20.1988 
 143   0.0000       0.755930        20.5699 
 144   0.0000       0.758144        20.6301 
 145   0.0000       0.785343        21.3703 
 146   0.0000       0.801306        21.8046 
 147   0.0000       0.812361        22.1055 
 148   0.0000       0.822941        22.3934 
 149   0.0000       0.827786        22.5252 
 150   0.0000       0.833566        22.6825 
 151   0.0000       0.848141        23.0791 
 152   0.0000       0.851675        23.1753 
 153   0.0000       0.877029        23.8652 
 154   0.0000       0.881950        23.9991 
 155   0.0000       0.897720        24.4282 
 156   0.0000       0.909004        24.7353 
 157   0.0000       0.921723        25.0814 
 158   0.0000       0.935842        25.4656 
 159   0.0000       0.941843        25.6288 
 160   0.0000       0.955731        26.0068 
 161   0.0000       0.969213        26.3736 
 162   0.0000       0.973683        26.4953 
 163   0.0000       0.976991        26.5853 
 164   0.0000       0.988443        26.8969 
 165   0.0000       1.003973        27.3195 
 166   0.0000       1.015993        27.6466 
 167   0.0000       1.025065        27.8934 
 168   0.0000       1.025954        27.9176 
 169   0.0000       1.043540        28.3962 
 170   0.0000       1.050925        28.5971 
 171   0.0000       1.061316        28.8799 
 172   0.0000       1.064842        28.9758 
 173   0.0000       1.076254        29.2864 
 174   0.0000       1.099610        29.9219 
 175   0.0000       1.108047        30.1515 
 176   0.0000       1.121070        30.5059 
 177   0.0000       1.135321        30.8936 
 178   0.0000       1.155149        31.4332 
 179   0.0000       1.158595        31.5270 
 180   0.0000       1.177616        32.0446 
 181   0.0000       1.182322        32.1726 
 182   0.0000       1.197830        32.5946 
 183   0.0000       1.203205        32.7409 
 184   0.0000       1.211320        32.9617 
 185   0.0000       1.223396        33.2903 
 186   0.0000       1.224582        33.3226 
 187   0.0000       1.236095        33.6358 
 188   0.0000       1.242201        33.8020 
 189   0.0000       1.263326        34.3769 
 190   0.0000       1.284642        34.9569 
 191   0.0000       1.288820        35.0706 
 192   0.0000       1.292352        35.1667 
 193   0.0000       1.310648        35.6646 
 194   0.0000       1.315028        35.7837 
 195   0.0000       1.320433        35.9308 
 196   0.0000       1.329258        36.1709 
 197   0.0000       1.347710        36.6730 
 198   0.0000       1.355497        36.8850 
 199   0.0000       1.367212        37.2037 
 200   0.0000       1.373195        37.3665 
 201   0.0000       1.384850        37.6837 
 202   0.0000       1.391582        37.8669 
 203   0.0000       1.400362        38.1058 
 204   0.0000       1.412349        38.4320 
 205   0.0000       1.429511        38.8990 
 206   0.0000       1.447938        39.4004 
 207   0.0000       1.463769        39.8312 
 208   0.0000       1.484455        40.3941 
 209   0.0000       1.490987        40.5718 
 210   0.0000       1.499641        40.8073 
 211   0.0000       1.507887        41.0317 
 212   0.0000       1.528064        41.5807 
 213   0.0000       1.533333        41.7241 
 214   0.0000       1.544266        42.0216 
 215   0.0000       1.551106        42.2077 
 216   0.0000       1.564669        42.5768 
 217   0.0000       1.574877        42.8546 
 218   0.0000       1.584863        43.1263 
 219   0.0000       1.592117        43.3237 
 220   0.0000       1.620051        44.0838 
 221   0.0000       1.624325        44.2001 
 222   0.0000       1.636448        44.5300 
 223   0.0000       1.646809        44.8120 
 224   0.0000       1.658927        45.1417 
 225   0.0000       1.673976        45.5512 
 226   0.0000       1.678134        45.6644 
 227   0.0000       1.694382        46.1065 
 228   0.0000       1.703533        46.3555 
 229   0.0000       1.710420        46.5429 
 230   0.0000       1.725970        46.9660 
 231   0.0000       1.744939        47.4822 
 232   0.0000       1.767163        48.0869 
 233   0.0000       1.772615        48.2353 
 234   0.0000       1.789183        48.6861 
 235   0.0000       1.791323        48.7444 
 236   0.0000       1.798553        48.9411 
 237   0.0000       1.811195        49.2851 
 238   0.0000       1.818181        49.4752 
 239   0.0000       1.837147        49.9913 
 240   0.0000       1.845050        50.2064 
 241   0.0000       1.855481        50.4902 
 242   0.0000       1.866796        50.7981 
 243   0.0000       1.890035        51.4305 
 244   0.0000       1.912686        52.0468 
 245   0.0000       1.927109        52.4393 
 246   0.0000       1.936657        52.6991 
 247   0.0000       1.973678        53.7065 
 248   0.0000       1.980209        53.8842 
 249   0.0000       1.992621        54.2220 
 250   0.0000       2.001508        54.4638 
 251   0.0000       2.002172        54.4819 
 252   0.0000       2.018167        54.9171 
 253   0.0000       2.030067        55.2409 
 254   0.0000       2.038444        55.4689 
 255   0.0000       2.041133        55.5420 
 256   0.0000       2.062341        56.1192 
 257   0.0000       2.086037        56.7640 
 258   0.0000       2.097813        57.0844 
 259   0.0000       2.100004        57.1440 
 260   0.0000       2.107606        57.3509 
 261   0.0000       2.151166        58.5362 
 262   0.0000       2.157308        58.7033 
 263   0.0000       2.181816        59.3702 
 264   0.0000       2.198139        59.8144 
 265   0.0000       2.201910        59.9170 
 266   0.0000       2.223435        60.5027 
 267   0.0000       2.238733        60.9190 
 268   0.0000       2.251189        61.2580 
 269   0.0000       2.254388        61.3450 
 270   0.0000       2.272452        61.8366 
 271   0.0000       2.298824        62.5542 
 272   0.0000       2.301638        62.6308 
 273   0.0000       2.310790        62.8798 
 274   0.0000       2.318891        63.1002 
 275   0.0000       2.330377        63.4128 
 276   0.0000       2.349086        63.9219 
 277   0.0000       2.353851        64.0515 
 278   0.0000       2.372220        64.5514 
 279   0.0000       2.405430        65.4551 
 280   0.0000       2.415512        65.7294 
 281   0.0000       2.442163        66.4546 
 282   0.0000       2.459004        66.9129 
 283   0.0000       2.494099        67.8679 
 284   0.0000       2.507919        68.2440 
 285   0.0000       2.541005        69.1443 
 286   0.0000       2.572177        69.9925 
 287   0.0000       2.601170        70.7814 
 288   0.0000       2.622880        71.3722 
 289   0.0000       2.633194        71.6529 
 290   0.0000       2.656228        72.2796 
 291   0.0000       2.667978        72.5994 
 292   0.0000       2.690357        73.2083 
 293   0.0000       2.711981        73.7968 
 294   0.0000       2.730109        74.2900 
 295   0.0000       2.740041        74.5603 
 296   0.0000       2.746134        74.7261 
 297   0.0000       2.758141        75.0528 
 298   0.0000       2.771218        75.4087 
 299   0.0000       2.775583        75.5275 
 300   0.0000       2.793004        76.0015 
 301   0.0000       2.804390        76.3113 
 302   0.0000       2.823153        76.8219 
 303   0.0000       2.829418        76.9924 
 304   0.0000       2.837528        77.2131 
 305   0.0000       2.843003        77.3620 
 306   0.0000       2.851638        77.5970 
 307   0.0000       2.858029        77.7709 
 308   0.0000       2.877265        78.2944 
 309   0.0000       2.885078        78.5070 
 310   0.0000       2.908288        79.1385 
 311   0.0000       2.913163        79.2712 
 312   0.0000       2.924498        79.5796 
 313   0.0000       2.942348        80.0654 
 314   0.0000       2.949814        80.2685 
 315   0.0000       2.955932        80.4350 
 316   0.0000       2.958893        80.5156 
 317   0.0000       2.980230        81.0962 
 318   0.0000       2.991803        81.4111 
 319   0.0000       2.997116        81.5557 
 320   0.0000       3.011436        81.9453 
 321   0.0000       3.024087        82.2896 
 322   0.0000       3.033188        82.5372 
 323   0.0000       3.043854        82.8275 
 324   0.0000       3.055506        83.1445 
 325   0.0000       3.064160        83.3800 
 326   0.0000       3.076586        83.7182 
 327   0.0000       3.083629        83.9098 
 328   0.0000       3.094440        84.2040 
 329   0.0000       3.107425        84.5573 
 330   0.0000       3.123687        84.9998 
 331   0.0000       3.131195        85.2042 
 332   0.0000       3.156390        85.8897 
 333   0.0000       3.161276        86.0227 
 334   0.0000       3.174264        86.3761 
 335   0.0000       3.180189        86.5373 
 336   0.0000       3.186543        86.7102 
 337   0.0000       3.192816        86.8809 
 338   0.0000       3.207400        87.2778 
 339   0.0000       3.220101        87.6234 
 340   0.0000       3.226551        87.7989 
 341   0.0000       3.235281        88.0365 
 342   0.0000       3.243744        88.2668 
 343   0.0000       3.253833        88.5413 
 344   0.0000       3.268691        88.9456 
 345   0.0000       3.280900        89.2778 
 346   0.0000       3.284929        89.3875 
 347   0.0000       3.288471        89.4838 
 348   0.0000       3.299065        89.7721 
 349   0.0000       3.308473        90.0281 
 350   0.0000       3.314047        90.1798 
 351   0.0000       3.321407        90.3801 
 352   0.0000       3.334587        90.7387 
 353   0.0000       3.338250        90.8384 
 354   0.0000       3.345779        91.0433 
 355   0.0000       3.361305        91.4658 
 356   0.0000       3.375782        91.8597 
 357   0.0000       3.387863        92.1885 
 358   0.0000       3.397482        92.4502 
 359   0.0000       3.416855        92.9774 
 360   0.0000       3.426756        93.2468 
 361   0.0000       3.432624        93.4064 
 362   0.0000       3.447392        93.8083 
 363   0.0000       3.455582        94.0312 
 364   0.0000       3.459758        94.1448 
 365   0.0000       3.480771        94.7166 
 366   0.0000       3.491196        95.0003 
 367   0.0000       3.496047        95.1323 
 368   0.0000       3.504697        95.3677 
 369   0.0000       3.511930        95.5645 
 370   0.0000       3.528978        96.0284 
 371   0.0000       3.530665        96.0743 
 372   0.0000       3.542429        96.3944 
 373   0.0000       3.547735        96.5388 
 374   0.0000       3.570172        97.1493 
 375   0.0000       3.576829        97.3305 
 376   0.0000       3.580413        97.4280 
 377   0.0000       3.620292        98.5131 
 378   0.0000       3.631812        98.8266 
 379   0.0000       3.645601        99.2019 
 380   0.0000       3.669978        99.8652 
 381   0.0000       3.678422       100.0949 
 382   0.0000       3.684197       100.2521 
 383   0.0000       3.694111       100.5219 
 384   0.0000       3.720361       101.2362 
 385   0.0000       3.725132       101.3660 
 386   0.0000       3.734669       101.6255 
 387   0.0000       3.750383       102.0531 
 388   0.0000       3.764849       102.4467 
 389   0.0000       3.774161       102.7001 
 390   0.0000       3.784906       102.9925 
 391   0.0000       3.798888       103.3730 
 392   0.0000       3.808972       103.6474 
 393   0.0000       3.823408       104.0402 
 394   0.0000       3.834787       104.3499 
 395   0.0000       3.841764       104.5397 
 396   0.0000       3.851801       104.8128 
 397   0.0000       3.862490       105.1037 
 398   0.0000       3.888162       105.8023 
 399   0.0000       3.898351       106.0795 
 400   0.0000       3.904096       106.2358 
 401   0.0000       3.911932       106.4491 
 402   0.0000       3.920740       106.6888 
 403   0.0000       3.925717       106.8242 
 404   0.0000       3.956352       107.6578 
 405   0.0000       3.957420       107.6869 
 406   0.0000       3.964854       107.8892 
 407   0.0000       3.986223       108.4706 
 408   0.0000       3.998659       108.8090 
 409   0.0000       4.015000       109.2537 
 410   0.0000       4.032909       109.7410 
 411   0.0000       4.059366       110.4610 
 412   0.0000       4.062391       110.5433 
 413   0.0000       4.066114       110.6446 
 414   0.0000       4.074743       110.8794 
 415   0.0000       4.090912       111.3194 
 416   0.0000       4.098913       111.5371 
 417   0.0000       4.117357       112.0390 
 418   0.0000       4.123595       112.2087 
 419   0.0000       4.137665       112.5916 
 420   0.0000       4.156410       113.1017 
 421   0.0000       4.171642       113.5162 
 422   0.0000       4.188673       113.9796 
 423   0.0000       4.208311       114.5140 
 424   0.0000       4.210776       114.5810 
 425   0.0000       4.229877       115.1008 
 426   0.0000       4.232142       115.1624 
 427   0.0000       4.248146       115.5979 
 428   0.0000       4.256623       115.8286 
 429   0.0000       4.263335       116.0112 
 430   0.0000       4.280127       116.4682 
 431   0.0000       4.289111       116.7126 
 432   0.0000       4.293093       116.8210 
 433   0.0000       4.311806       117.3302 
 434   0.0000       4.320012       117.5535 
 435   0.0000       4.327919       117.7687 
 436   0.0000       4.338318       118.0516 
 437   0.0000       4.354636       118.4957 
 438   0.0000       4.393747       119.5599 
 439   0.0000       4.393962       119.5658 
 440   0.0000       4.410246       120.0089 
 441   0.0000       4.425842       120.4333 
 442   0.0000       4.466356       121.5357 
 443   0.0000       4.490094       122.1817 
 444   0.0000       4.498880       122.4207 
 445   0.0000       4.523403       123.0880 
 446   0.0000       4.552563       123.8815 
 447   0.0000       4.571405       124.3943 
 448   0.0000       4.581963       124.6815 
 449   0.0000       4.589729       124.8929 
 450   0.0000       4.619084       125.6917 
 451   0.0000       4.637294       126.1872 
 452   0.0000       4.644774       126.3907 
 453   0.0000       4.687419       127.5511 
 454   0.0000       4.715117       128.3048 
 455   0.0000       4.726944       128.6267 
 456   0.0000       4.731076       128.7391 
 457   0.0000       4.745369       129.1281 
 458   0.0000       4.751388       129.2919 
 459   0.0000       4.766405       129.7005 
 460   0.0000       4.796231       130.5121 
 461   0.0000       4.807949       130.8310 
 462   0.0000       4.831413       131.4694 
 463   0.0000       4.849752       131.9684 
 464   0.0000       4.878401       132.7480 
 465   0.0000       4.887264       132.9892 
 466   0.0000       4.911656       133.6530 
 467   0.0000       4.924047       133.9901 
 468   0.0000       4.950271       134.7037 
 469   0.0000       4.967432       135.1707 
 470   0.0000       4.991274       135.8195 
 471   0.0000       5.003295       136.1466 
 472   0.0000       5.007662       136.2654 
 473   0.0000       5.018967       136.5730 
 474   0.0000       5.049897       137.4147 
 475   0.0000       5.062079       137.7462 
 476   0.0000       5.091920       138.5582 
 477   0.0000       5.102660       138.8504 
 478   0.0000       5.141276       139.9012 
 479   0.0000       5.163863       140.5159 
 480   0.0000       5.185921       141.1161 
 481   0.0000       5.200434       141.5110 
 482   0.0000       5.218178       141.9938 
 483   0.0000       5.266620       143.3120 
 484   0.0000       5.294332       144.0661 
 485   0.0000       5.326994       144.9549 
[...]
 2 O  pz              0.0       0.2       0.0       0.0       0.0       0.0
 2 O  px              0.0       0.2       0.0       0.0       0.0       0.0
 2 O  py              0.0       0.2       0.0       0.0       0.0       0.0
 3 N  s               0.0       0.0       0.0       0.0       0.0      98.9
 3 N  pz              0.0       0.0       0.0       0.0       0.0       0.1
 4 C  s               0.1       3.4      86.0       3.3       0.1       0.0
 4 C  pz              0.0       0.0       0.2       0.0       0.0       0.0
 5 C  s               0.2       1.5       1.4       0.0       0.0       0.0
 6 C  s               0.0       0.7       1.4      18.8       0.3       0.0
 6 C  pz              0.2       0.0       0.0       0.0       0.0       0.0
 6 C  px              0.0       0.0       0.1       0.0       0.0       0.0
 6 C  py              0.3       0.0       0.0       0.0       0.0       0.0
 6 C  dx2y2           0.0       0.0       0.1       0.1       0.0       0.0
 6 C  dxy             0.1       0.0       0.0       0.0       0.0       0.0
 7 C  s              43.4       1.0       0.5      20.4       0.0       0.0
 8 C  s              41.2       0.9       0.1      20.9       0.0       0.0
 9 C  s               2.1      88.2       3.5       0.1       0.0       0.0
 9 C  py              0.0       0.3       0.0       0.0       0.0       0.0
 9 C  dxz             0.0       0.2       0.0       0.0       0.0       0.0
10 C  s               4.4       0.2       1.5      15.4       0.2       0.0
10 C  px              0.1       0.0       0.0       0.0       0.2       0.0
11 C  s               6.5       0.1       1.1      15.3       0.2       0.0
11 C  px              0.1       0.0       0.0       0.0       0.2       0.0
12 C  s               0.0       0.0       0.9       3.2       1.2       0.0
12 C  px              0.0       0.0       0.0       0.0       0.5       0.0
12 C  dyz             0.0       0.0       0.0       0.1       0.1       0.0
12 C  dx2y2           0.0       0.0       0.0       0.0       0.3       0.0
12 C  dxy             0.0       0.0       0.0       0.0       0.2       0.0
13 H  s               0.0       0.0       0.7       0.0       0.0       0.0
13 H  pz              0.0       0.0       0.2       0.0       0.0       0.0
14 H  s               0.0       0.1       0.7       0.0       0.0       0.0
14 H  py              0.0       0.0       0.2       0.0       0.0       0.0
16 H  s               0.1       0.0       0.0       0.0       0.0       0.0
17 H  s               0.1       0.0       0.0       0.0       0.0       0.0
18 H  s               0.0       0.0       0.0       0.0       0.0       0.2
18 H  py              0.0       0.0       0.0       0.0       0.0       0.1
19 H  s               0.0       0.0       0.0       0.0       0.0       0.2

                    552       553   
                  43.89456  43.99402
                   0.00000   0.00000
                  --------  --------
 1 O  s               3.4      96.2
 2 O  s              96.4       3.4


                      *****************************
                      * MAYER POPULATION ANALYSIS *
                      *****************************

  NA   - Mulliken gross atomic population
  ZA   - Total nuclear charge
  QA   - Mulliken gross atomic charge
  VA   - Mayer's total valence
  BVA  - Mayer's bonded valence
  FA   - Mayer's free valence

  ATOM       NA         ZA         QA         VA         BVA        FA
  0 Cl    17.1465    17.0000    -0.1465     1.1721     1.1721    -0.0000
  1 O      8.3062     8.0000    -0.3062     2.1820     2.1820    -0.0000
  2 O      8.4353     8.0000    -0.4353     2.0473     2.0473    -0.0000
  3 N      7.4250     7.0000    -0.4250     3.0125     3.0125     0.0000
  4 C      6.1120     6.0000    -0.1120     3.8006     3.8006    -0.0000
  5 C      5.8607     6.0000     0.1393     3.7526     3.7526    -0.0000
  6 C      6.0045     6.0000    -0.0045     3.6099     3.6099    -0.0000
  7 C      6.1760     6.0000    -0.1760     3.8976     3.8976     0.0000
  8 C      6.1981     6.0000    -0.1981     3.9371     3.9371    -0.0000
  9 C      5.6557     6.0000     0.3443     4.2558     4.2558    -0.0000
 10 C      6.1745     6.0000    -0.1745     3.9770     3.9770    -0.0000
 11 C      6.1774     6.0000    -0.1774     3.9761     3.9761    -0.0000
 12 C      5.8719     6.0000     0.1281     3.7151     3.7151     0.0000
 13 H      0.9014     1.0000     0.0986     1.0203     1.0203    -0.0000
 14 H      0.8966     1.0000     0.1034     1.0059     1.0059    -0.0000
 15 H      0.8903     1.0000     0.1097     1.0277     1.0277    -0.0000
 16 H      0.8367     1.0000     0.1633     0.9985     0.9985     0.0000
 17 H      0.8375     1.0000     0.1625     0.9934     0.9934    -0.0000
 18 H      0.8342     1.0000     0.1658     1.0077     1.0077     0.0000
 19 H      0.8434     1.0000     0.1566     1.0272     1.0272     0.0000
 20 H      0.8424     1.0000     0.1576     0.9993     0.9993    -0.0000
 21 H      0.8425     1.0000     0.1575     0.9994     0.9994    -0.0000
 22 H      0.7311     1.0000     0.2689     0.9899     0.9899    -0.0000

  Mayer bond orders larger than 0.100000
B(  0-Cl, 12-C ) :   0.9147 B(  1-O ,  9-C ) :   1.2472 B(  1-O , 22-H ) :   0.9200 
B(  2-O ,  9-C ) :   1.9638 B(  3-N ,  5-C ) :   0.9757 B(  3-N , 18-H ) :   0.9825 
B(  3-N , 19-H ) :   0.9832 B(  4-C ,  5-C ) :   0.9188 B(  4-C ,  6-C ) :   0.8856 
B(  4-C , 13-H ) :   0.9887 B(  4-C , 14-H ) :   0.9803 B(  5-C ,  9-C ) :   0.9277 
B(  5-C , 15-H ) :   0.9748 B(  6-C ,  7-C ) :   1.3170 B(  6-C ,  8-C ) :   1.3386 
B(  7-C , 10-C ) :   1.4353 B(  7-C , 16-H ) :   0.9709 B(  8-C , 11-C ) :   1.4476 
B(  8-C , 17-H ) :   0.9710 B( 10-C , 12-C ) :   1.3590 B( 10-C , 20-H ) :   0.9705 
B( 11-C , 12-C ) :   1.3492 B( 11-C , 21-H ) :   0.9703 

-------
TIMINGS
-------

Total SCF time: 0 days 0 hours 2 min 42 sec 

Total time                  ....     162.220 sec
Sum of individual times     ....     153.148 sec  ( 94.4%)

SCF preparation             ....       0.616 sec  (  0.4%)
Fock matrix formation       ....     150.232 sec  ( 92.6%)
  Startup                   ....       0.021 sec  (  0.0% of F)
  Split-RI-J                ....       8.823 sec  (  5.9% of F)
  Chain of spheres X        ....     127.551 sec  ( 84.9% of F)
  XC integration            ....      13.421 sec  (  8.9% of F)
    XC Preparation          ....       0.000 sec  (  0.0% of XC)
    Basis function eval.    ....       3.414 sec  ( 25.4% of XC)
    Density eval.           ....       3.694 sec  ( 27.5% of XC)
    XC-Functional eval.     ....       0.249 sec  (  1.9% of XC)
    XC-Potential eval.      ....       5.767 sec  ( 43.0% of XC)
  CPCM terms                ....       9.320 sec  (  6.2% of F)
Diagonalization             ....       0.000 sec  (  0.0%)
Density matrix formation    ....       0.084 sec  (  0.1%)
Total Energy calculation    ....       0.047 sec  (  0.0%)
Population analysis         ....       1.044 sec  (  0.6%)
Orbital Transformation      ....       0.184 sec  (  0.1%)
Orbital Orthonormalization  ....       0.000 sec  (  0.0%)
DIIS solution               ....       0.638 sec  (  0.4%)
  MO trafo                  ....       0.088 sec  ( 13.7 % of DIIS)
  Orb grad                  ....       0.000 sec  (  0.0 % of DIIS)
  Energy W gradient         ....       0.000 sec  (  0.0 % of DIIS)
  DIIS error                ....       0.117 sec  ( 18.4 % of DIIS)
  DIIS work                 ....       0.323 sec  ( 50.7 % of DIIS)
  Form Q                    ....       0.000 sec  (  0.0 % of DIIS)
  Form QpQm                 ....       0.000 sec  (  0.0 % of DIIS)
  Exp/Cayley                ....       0.000 sec  (  0.0 % of DIIS)
  Orb update                ....       0.000 sec  (  0.0 % of DIIS)
  Wake-sleep                ....       0.013 sec  (  2.0 % of DIIS)
SOSCF solution              ....       0.302 sec  (  0.2%)
  MO trafo                  ....       0.148 sec  ( 49.1 % of SOSCF)
  Orb grad                  ....       0.005 sec  (  1.6 % of SOSCF)
  Rot update                ....       0.007 sec  (  2.3 % of SOSCF)
  Step                      ....       0.136 sec  ( 45.0 % of SOSCF)
Finished LeanSCF after 162.4 sec

Maximum memory used throughout the entire LEANSCF-calculation: 75.3 MB


-------------------------------------------------------------------------------
                          DFT DISPERSION CORRECTION                            
                                                                               
                              DFTD3 V3.1  Rev 1                                
                          USING Becke-Johnson damping                          
-------------------------------------------------------------------------------
The B3LYP functional is recognized
Active option DFTDOPT                   ...         4   

molecular C6(AA) [au] = 6599.882845 


            DFT-D V3
 parameters
 s6 scaling factor         :     1.0000 
 a1 scaling factor         :     0.3981 
 s8 scaling factor         :     1.9889 
 a2 scaling factor         :     4.4211 
 ad hoc parameters k1-k3   :    16.0000     1.3333    -4.0000 

 Edisp/kcal,au: -29.491515275099  -0.046997716127 
 E6   /kcal   : -13.776365959 
 E8   /kcal   : -15.715149317 
 % E8         :  53.287018893 

-------------------------   ----------------
Dispersion correction           -0.046997716
-------------------------   ----------------


-------------------------   --------------------
FINAL SINGLE POINT ENERGY     -1014.327462832767
-------------------------   --------------------

                                *** OPTIMIZATION RUN DONE ***



           ************************************************************
           *        Program running with 2 parallel MPI-processes     *
           *              working on a common directory               *
           ************************************************************

------------------------------------------------------------------------------
                              ORCA PROPERTY CALCULATIONS
------------------------------------------------------------------------------

GBWName                                 ... /kaggle/working/Phe-Cl-1/Phe-Cl_InterFrag.gbw
Number of atoms                         ...     23
Number of basis functions               ...    554
Max core memory                         ...   3000 MB

Electric properties:
Dipole moment                           ... YES
Quadrupole moment                       ...  NO
Static polarizability (Dipole/Dipole)   ...  NO
Static polarizability (Dipole/Quad.)    ...  NO
Static polarizability (Quad./Quad.)     ...  NO
Static polarizability (Velocity)        ...  NO
Static hyperpolarizability              ...  NO

Atomic electric properties:
Dipole moment                           ...  NO
Quadrupole moment                       ...  NO
Static polarizability                   ...  NO

Choice of electric origin               ... Center of mass
Position of electric origin             ...     0.723308    -0.272378    -0.150637

General magnetic properties:
Magnetizability                         ...  NO

EPR properties:
g-Tensor (aka g-matrix)                 ...  NO
Zero-Field splitting spin-orbit         ...  NO
Zero-field splitting spin-spin          ...  NO
Hyperfine couplings                     ...  NO (   0 nuclei)
Quadrupole couplings                    ...  NO (   0 nuclei)
Contact density                         ...  NO (   0 nuclei)

NMR properties:
Chemical shifts                         ...  NO (   0 nuclei)
Spin-rotation constants                 ...  NO (   0 nuclei)
Spin-spin couplings                     ...  NO (   0 nuclei,    0 pairs)

Choice of magnetic origin               ... GIAO
Position of magnetic origin             ...     0.000000     0.000000     0.000000

Properties with geometric perturbations:
SCF Hessian                             ...  NO
IR spectrum                             ...  NO
VCD spectrum                            ...  NO
X-ray spectroscopy properties:
SCF XES/XAS/RIXS spectra                ...  NO

SCF SOC stabilization energy            ...  NO
Diagonal Born-Oppenheimer correction    ...  NO

-------------
DIPOLE MOMENT
-------------

Method             : SCF
Type of density    : Electron Density
Multiplicity       :   1
Irrep              :   0
Energy             : -1014.2804651166397889 Eh
Basis              : AO
                                X                 Y                 Z
Electronic contribution:     15.526857687      -6.922109006      -2.569452381
Nuclear contribution   :    -15.510196113       7.973983374       2.727540629
                        -----------------------------------------
Total Dipole Moment    :      0.016661574       1.051874368       0.158088248
                        -----------------------------------------
Magnitude (a.u.)       :      1.063818212
Magnitude (Debye)      :      2.704011003



--------------------
Rotational spectrum 
--------------------
 
Rotational constants in cm-1:             0.055508             0.011049             0.010326 
Rotational constants in MHz :          1664.076165           331.238852           309.564862 

Dipole components along the rotational axes: 
x,y,z [a.u.] :    -0.116834     1.056633    -0.039814 
x,y,z [Debye]:    -0.296969     2.685748    -0.101198 

 

Dipole moment calculation done in   0.0 sec 

Maximum memory used throughout the entire PROP-calculation: 48.3 MB

--------------------------------
SUGGESTED CITATIONS FOR THIS RUN
--------------------------------

Below you find a list of papers that are relevant to this ORCA run
We neither can nor want to force you to cite these papers, but we appreciate if you do
You receive ORCA, which is the product of decades of hard work by many enthusiastic individuals, for free
The only thing we kindly ask in return is that you cite our papers,
We deeply appreciate it, if you show your appreciation for ORCA by not just citing the generic ORCA reference.

Please note that relegating all ORCA citations to the supporting information does *not* help us.
SI sections are not indexed - citations you put there will not count into any citation statistics
But we need these citations in order to attract the funding resources that allow us to do what we are doing

Therefore, if you are a happy ORCA user, please consider citing a few of the papers listed below in the main body of your paper

In addition to the list printed below, the program has created the file /kaggle/working/Phe-Cl-1/Phe-Cl_InterFrag.bibtex that contains the list in bibtex format
You can import this file easily into all common literature databanks and citation aid programs

It goes without saying that in many instances, there are alternative algorithms to achieve similar
results as the ones you have gotten from ORCA. It is, of course, also the case that in some instances
ORCA just re-implements algorithms worked out by others. We are fully aware of that and we are also
fully appreciative of our colleagues work. Hence this citation list should not be read as indicating
that the listed papers, which are focused on our own work, are the only ones worth citing. It simply
meant to make it easier for users to cite ORCA specific papers. It is not a substitute for doing your
own literature research and citing the relevant literature in a scientifically appropriate manner.

List of essential papers. We consider these as the minimum necessary citations

  1. Neese, F.
     Software update: the ORCA program system, version 6.0
     WIRES Comput. Molec. Sci. 2025 15(1), e70019
     doi.org/10.1002/wcms.70019

List of papers to cite with high priority. The work reported in these papers was absolutely
necessary for this run to complete.
Our perspective: the developers of density functionals and basis sets usually get cited in chemistry papers
Good! But without the algorithms to do something with them, the functionals or basis sets would not do anything.
Hence, in our opinion, the algorithm design and method developments papers are equally worthy of getting cited

  1. Neese, F.
     An improvement of the resolution of the identity approximation for the formation of the Coulomb matrix
     J. Comp. Chem. 2003 24(14), 1740-1747
     doi.org/10.1002/jcc.10318
  2. Neese, F.; Wennmohs, F.; Hansen, A.; Becker, U.
     Efficient, approximate and parallel Hartree-Fock and hybrid DFT calculations. A 'chain-of-spheres' algorithm for the Hartree-Fock exchange
     Chem. Phys. 2009 356(1-3), 98-109
     doi.org/10.1016/j.chemphys.2008.10.036
  3. Grimme, S.; Antony, J.; Ehrlich, S.; Krieg, H.
     A consistent and accurate ab initio parametrization of density functional dispersion correction (DFT-D) for the 94 elements H-Pu
     J. Chem. Phys. 2010 132 , 154104
     doi.org/10.1063/1.3382344
  4. Grimme, S.; Ehrlich, S.; Goerigk, L.
     Effect of the damping function in dispersion corrected density functional theory
     J. Comput. Chem. 2011 32(7), 1456-1465
     doi.org/10.1002/jcc.21759
  5. Garcia-Rates, M.; Neese, F.
     Effect of the Solute Cavity on the Solvation Energy and its Derivatives within the Framework of the Gaussian Charge Scheme
     J. Comput. Chem. 2020 41 , 922-939
     doi.org/10.1002/jcc.26139
  6. Helmich-Paris, B.; de Souza, B.; Neese, F.; Izsák, R.
     An improved chain of spheres for exchange algorithm
     J. Chem. Phys. 2021 155(10), 104109
     doi.org/10.1063/5.0058766
  7. Neese, F.
     The SHARK Integral Generation and Digestion System
     J. Comp. Chem. 2022 44(3), 381
     doi.org/10.1002/jcc.26942

List of suggested additional citations. These are papers that are important in the 'surrounding' of 
of this run, or papers that preceded the highly important papers. If you like your results we are grateful for a citation.

  1. Izsak, R.; Neese, F.
     An overlap fitted chain of spheres exchange method
     J. Chem. Phys. 2011 135 , 144105
     doi.org/10.1063/1.3646921
  2. Izsak, R.; Hansen, A.; Neese, F.
     The resolution of identity and chain of spheres approximations for the LPNO-CCSD singles Fock term
     Molec. Phys. 2012 110 , 2413-2417
     doi.org/10.1080/00268976.2012.687466
  3. Neese, F.
     The ORCA program system
     WIRES Comput. Molec. Sci. 2012 2(1), 73-78
     doi.org/10.1002/wcms.81
  4. Izsak, R.; Neese, F.; Klopper, W.
     Robust fitting techniques in the chain of spheres approximation to the Fock exchange: The role of the complementary space
     J. Chem. Phys. 2013 139 , 
     doi.org/10.1063/1.4819264
  5. Neese, F.
     Software update: the ORCA program system, version 4.0
     WIRES Comput. Molec. Sci. 2018 8(1), 1-6
     doi.org/10.1002/wcms.1327
  6. Neese, F.; Wennmohs, F.; Becker, U.; Riplinger, C.
     The ORCA quantum chemistry program package
     J. Chem. Phys. 2020 152(22), 224108
     doi.org/10.1063/5.0004608
  7. Neese, F.
     Software update: The ORCA program system—Version 5.0
     WIRES Comput. Molec. Sci. 2022 12(1), e1606
     doi.org/10.1002/wcms.1606

List of optional additional citations

  1. Neese, F.
     Approximate second-order SCF convergence for spin unrestricted wavefunctions
     Chem. Phys. Lett. 2000 325(1-3), 93-98
     doi.org/10.1016/s0009-2614(00)00662-x

Timings for individual modules:

Sum of individual times          ...     2808.514 sec (=  46.809 min)
Startup calculation              ...       40.082 sec (=   0.668 min)   1.4 %
SCF iterations                   ...     1898.179 sec (=  31.636 min)  67.6 %
Property calculations            ...        0.498 sec (=   0.008 min)   0.0 %
SCF Gradient evaluation          ...      869.676 sec (=  14.495 min)  31.0 %
Geometry relaxation              ...        0.079 sec (=   0.001 min)   0.0 %
                             ****ORCA TERMINATED NORMALLY****
TOTAL RUN TIME: 0 days 0 hours 46 minutes 52 seconds 989 msec
