
                                 *****************
                                 * O   R   C   A *
                                 *****************

                                            #,                                       
                                            ###                                      
                                            ####                                     
                                            #####                                    
                                            ######                                   
                                           ########,                                 
                                     ,,################,,,,,                         
                               ,,#################################,,                 
                          ,,##########################################,,             
                       ,#########################################, ''#####,          
                    ,#############################################,,   '####,        
                  ,##################################################,,,,####,       
                ,###########''''           ''''###############################       
              ,#####''   ,,,,##########,,,,          '''####'''          '####       
            ,##' ,,,,###########################,,,                        '##       
           ' ,,###''''                  '''############,,,                           
         ,,##''                                '''############,,,,        ,,,,,,###''
      ,#''                                            '''#######################'''  
     '                                                          ''''####''''         
             ,#######,   #######,   ,#######,      ##                                
            ,#'     '#,  ##    ##  ,#'     '#,    #''#        ,####,    ,#,          
            ##       ##  ##   ,#'  ##            #'  '#       #'       ,# #          
            ##       ##  #######   ##           ,######,      #####,      #          
            '#,     ,#'  ##    ##  '#,     ,#' ,#      #,     #,   #      #          
             '#######'   ##     ##  '#######'  #'      '#     '####' #    #          



                #########################################################
                #                        -***-                          #
                #          Department of theory and spectroscopy        #
                #                                                       #
                #                      Frank Neese                      #
                #                                                       #
                #     Directorship, Architecture, Infrastructure        #
                #                    SHARK, DRIVERS                     #
                #        Core code/Algorithms in most modules           #
                #                                                       #
                #        Max Planck Institute fuer Kohlenforschung      #
                #                Kaiser Wilhelm Platz 1                 #
                #                 D-45470 Muelheim/Ruhr                 #
                #                      Germany                          #
                #                                                       #
                #                  All rights reserved                  #
                #                        -***-                          #
                #########################################################


                         Program Version 6.1.1  -  RELEASE   -
                                (GIT: $487d211c$)
                          ($2025-11-21 10:33:24 +0100$)
                                                                         
                                  - NO-DMRG VERSION -                    
                                                                         


 With contributions from (in alphabetic order):
[Max-Planck-Institut fuer Kohlenforschung]                               
  Daniel Aravena         : Magnetic Suceptibility                        
  Michael Atanasov       : Ab Initio Ligand Field Theory (pilot matlab implementation)
  Alexander A. Auer      : GIAO ZORA, VPT2 properties, NMR spectrum      
  Ute Becker             : All parallelization in ORCA, NUMFREQ, NUMCALC 
  Giovanni Bistoni       : ED, misc. LED, open-shell LED, HFLD           
  Dmytro Bykov           : pre 5.0 version of the SCF Hessian            
  Marcos Casanova-Páez   : Triplet and SCS-CIS(D). UHF-(DLPNO)-IP/EA/STEOM-CCSD. UHF-CVS-IP/STEOM-CCSD   
  Vijay G. Chilkuri      : MRCI spin determinant printing, contributions to CSF-ICE 
  Pauline Colinet        : FMM embedding                                 
  Dipayan Datta          : RHF DLPNO-CCSD density                        
  Achintya Kumar Dutta   : EOM-CC, STEOM-CC                              
  Nicolas Foglia         : Exact transition moments, OPA infrastructure, MCD improvements    
  Dmitry Ganyushin       : Spin-Orbit,Spin-Spin,Magnetic field MRCI      
  Miquel Garcia-Rates    : C-PCM and meta-GGA Hessian, CCSD/C-PCM, Gaussian charge scheme 
  Tiago L. C. Gouveia    : GS-ROHF, GS-ROCIS                             
  Yang Guo               : DLPNO-NEVPT2, F12-NEVPT2, CIM, IAO-localization        
  Andreas Hansen         : Spin unrestricted coupled pair/coupled cluster methods 
  Ingolf Harden          : AUTO-CI MPn and infrastructure                
  Benjamin Helmich-Paris : MC-RPA, TRAH-(SCF,CASSCF), AVAS, COSX integrals, SCF dyn. polar., MC-PDFT, srDFT 
  Lee Huntington         : MR-EOM, pCC                                   
  Robert Izsak           : Overlap fitted RIJCOSX, COSX-SCS-MP3, EOM     
  Riya Kayal             : Wick's Theorem for AUTO-CI, AUTO-CI UHF-CCSDT 
  Emily Kempfer          : AUTO-CI RHF CISDT and CCSDT, approximate NEVPT4
  Christian Kollmar      : KDIIS, OOCD, Brueckner-CCSD(T), CCSD density, CASPT2, CASPT2-K, improved NEVPT2 
  Axel Koslowski         : Symmetry handling                             
  Simone Kossmann        : meta-GGA functionals, TD-DFT gradient, OOMP2, (MP2 Hessian; deprecated post 5.0) 
  Lucas Lang             : DCDCAS, Hyperfine gauge corrections, ICE-SOC+SSC
  Marvin Lechner         : AUTO-CI (C++ implementation), FIC-MRCC        
  Spencer Leger          : CASSCF response                               
  Dagmar Lenk            : GEPOL surface, SMD, ORCA-2-JSON               
  Dimitrios Liakos       : Extrapolation schemes; Compound Job, Property file
  Dimitrios Manganas     : Further ROCIS development; embedding schemes. LFT, Crystal Embedding 
  Dimitrios Pantazis     : SARC Basis sets                               
  Anastasios Papadopoulos: AUTO-CI, single reference methods and gradients 
  Taras Petrenko         : pre 6.0 DFT Hessian and TD-DFT gradient,  ECA, NRVS 
  Petra Pikulova         : Analytic Raman intensities                    
  Peter Pinski           : DLPNO-MP2, DLPNO-MP2 Gradient                 
  Shashank Vittal Rao    : ES-AILFT, MagRelax                            
  Christoph Reimann      : Effective Core Potentials                     
  Marius Retegan         : Local ZFS, SOC                                
  Christoph Riplinger    : Optimizer, TS searches, QM/MM, DLPNO-CCSD(T), (RO)-DLPNO pert. Triples 
  Michael Roemelt        : Original ROCIS implementation, recursive CI coupling coefficients
  Masaaki Saitow         : Open-shell DLPNO-CCSD energy and density      
  Barbara Sandhoefer     : DKH picture change effects                    
  Yorick L. A. Schmerwitz: GMF and freeze-and-release deltaSCF, NEB S-IDPP initial path                    
  Kantharuban Sivalingam : CASSCF convergence/infrastructure, NEVPT2, NEVPT3, NEVPT4(SD), FIC-MRCI and CEPA variants
  Bernardo de Souza      : ESD, SOC TD-DFT                               
  Georgi L. Stoychev     : AutoAux, RI-MP2 NMR, DLPNO-MP2 response, X2C  
  Van Anh Tran           : RI-MP2 g-tensors                              
  Willem Van den Heuvel  : Paramagnetic NMR                              
  Zikuan Wang            : NOTCH, Electric field optimization            
  Frank Wennmohs         : Technical directorship and infrastructure     
  Hang Xu                : AUTO-CI-Response properties                   
                                                                         
[FACCTs GmbH]                                                            
  Markus Bursch, Nicolas Foglia, Miquel Garcia-Rates, Ingolf Harden, Hagen Neugebauer, Anastasios Papadopoulos, 
  Christoph Riplinger, Bernardo de Souza, Georgi L. Stoychev                                                    
                                                                 
  APM, various basis sets, CI-OPT, improved COSX, DLPNO-Multilevel,           
  DOCKER, DRACO, updates on ESD, Fragmentator, GOAT, IRC, LR-CPCM, L-BFGS, MBIS, meta-GGA TD-DFT gradient, ML-optimized integration grids, 
  MM, NACMEs, nearIR, NEB, NEB-TS, NL-DFT gradient (VV10), 2- and 3-layer-ONIOM, interface openCOSMO-RS, QMMM,   
  Crystal-QMMM, RESP, rigid body optimization, SF, symmetry and pop. for TD-DFT, various functionals, SOLVATOR                                   
                                                                         
[Other institutions]                                                     
  V. Asgeirsson          : NEB                                           
  Christoph Bannwarth    : sTDA-DFT, sTD-DFT, PBEh-3c, B97-3c, D3        
  Giovanni Bistoni       : ETS/NOCV, ADLD/ADEX, COVALED                  
  Martin Brehm           : Molecular dynamics                            
  Ronald Cardenas        : ETS/NOCV                                      
  Martina Colucci        : COVALED                                       
  Sebastian Ehlert       : rSCAN, r2SCAN, r2SCAN-3c, D4, dhf basis sets  
  Marvin Friede          : D4 for Fr, Ra, Ac-Lr                          
  Lars Goerigk           : TD-DFT with DH, B97 family of functionals     
  Stefan Grimme          : VdW corrections, initial TS optimization, DFT functionals, gCP, sTDA/sTD-DF 
  Waldemar Hujo          : DFT-NL                                        
  H. Jonsson             : NEB                                           
  Holger Kruse           : gCP                                           
  Marcel Mueller         : wB97X-3c, vDZP basis set                      
  Hagen Neugebauer       : wr2SCAN, Native XTB                           
  Gianluca Regni         : ADLD/ADEX                                     
  Tobias Risthaus        : pre 6.0 range-separated hybrid DFT and stability analysis
  Lukas Wittmann         : regularized MP2, r2SCAN double-hybrids, wr2SCAN        
                                                                         
We gratefully acknowledge several colleagues who have allowed us to      
interface, adapt or use parts of their codes:                            
  Ed Valeev, F. Pavosevic, A. Kumar             : LibInt (2-el integral package), F12 methods 
  Garnet Chan, S. Sharma, J. Yang, R. Olivares  : DMRG                   
  Ulf Ekstrom                                   : XCFun DFT Library      
  Mihaly Kallay                                 : mrcc  (arbitrary order and MRCC methods)
  Frank Weinhold                                : gennbo (NPA and NBO analysis)           
  Simon Mueller                                 : openCOSMO-RS                            
  Christopher J. Cramer and Donald G. Truhlar   : smd solvation model                     
  S Lehtola, MJT Oliveira, MAL Marques          : LibXC Library                           
  Liviu Ungur et al                             : ANISO software                          


 Your calculation uses the libint2 library for the computation of 2-el integrals
 For citations please refer to: http://libint.valeyev.net

 Your ORCA version has been built with support for libXC version: 7.0.0
 For citations please refer to: https://libxc.gitlab.io

 This ORCA versions uses:
   CBLAS   interface :  Fast vector & matrix operations
   LAPACKE interface :  Fast linear algebra routines
   SCALAPACK package :  Parallel linear algebra routines
   Shared memory     :  Shared parallel matrices
   BLAS/LAPACK       :  OpenBLAS 0.3.29  USE64BITINT DYNAMIC_ARCH NO_AFFINITY SkylakeX SINGLE_THREADED
        Core in use  :  SkylakeX
   Copyright (c) 2011-2014, The OpenBLAS Project


  ***********************************
  * Starting time: Tue Mar 24 17:25:49 2026
  * Host name:     e5345e16a5d6
  * Process ID:    54
  * Working dir.:  /kaggle/working
  ***********************************

NOTE: MaxCore=3000 MB was set to SCF,MP2,MDCI,CIPSI,MRCI,RASCI and CIS
      => If you want to overwrite this, your respective input block should be placed after the MaxCore statement
Your calculation utilizes the atom-pairwise dispersion correction
with the Becke-Johnson damping scheme (D3BJ)


Your calculation utilizes the SMD solvation module
Please cite in your paper:
Marenich, A. V.; Cramer, C. J.; Truhlar, D. G. J. Phys. Chem. B 2009, 113, 6378 

Warning: RI is on but no J-basis has been assigned. Assigning Def2/J (nothing to worry about!)
================================================================================

----- Orbital basis set information -----
Your calculation utilizes the basis: 6-31G(d,p)
   H-He, Li-Ne : W. J. Hehre, R. Ditchfield and J.A. Pople, J. Chem. Phys. 56, 2257 (1972).
                 Note: He and Ne are unpublished basis sets taken from the Gaussian program.
                 Note: Li and B from J. D. Dill and J. A. Pople, J. Chem. Phys. 62, 2921 (1975).
   Na - Ar     : M. M. Francl, W. J. Pietro, W. J. Hehre, J. S. Binkley, M. S. Gordon, 
                 D. J. DeFrees and J. A. Pople, J. Chem. Phys. 77, 3654 (1982).
   K - Zn      : V. A. Rassolov, J. A. Pople, M. A. Ratner, and T. L. Windus, J. Chem. Phys. 109, 1223 (1998).

----- AuxJ basis set information -----
Your calculation utilizes the auxiliary basis: def2/J
   H-Rn: F. Weigend, Phys. Chem. Chem. Phys. 8, 1057 (2006).
   Fr-Lr: K. Eichkorn, F. Weigend, O. Treutler, R. Ahlrichs; Theor. Chem. Acc. 97, 119 (1997).

================================================================================
                                        WARNINGS
                       Please study these warnings very carefully!
================================================================================


WARNING: Geometry Optimization
  ===> : Switching off AutoStart
         For restart on a previous wavefunction, please use MOREAD

================================================================================
                                       INPUT FILE
================================================================================
NAME = /kaggle/working/Phe-F5-1/Phe-F5_InterFrag.inp
|  1> 
|  2> !RKS B3LYP 6-31G(d,p) TightSCF Opt D3BJ
|  3>  
|  4> %pal nprocs 2 end
|  5> %maxcore 3000
|  6> 
|  7> %cpcm
|  8>   smd true
|  9>   SMDsolvent "WATER"
| 10>   end
| 11> 
| 12> %scf
| 13>   MaxIter 1000
| 14>   SOSCF Start 0.00033
| 15>   end
| 16> end
| 17> 
| 18> %output
| 19>   PrintLevel Normal
| 20>   Print[ P_OrbEn ] 2        # print ALL orbital energies (not just up to LUMO+9) :contentReference[oaicite:10]{index=10}
| 21>   XYZFile true              # writes basename.xyz (handy for reuse) :contentReference[oaicite:11]{index=11}
| 22>   end
| 23> 
| 24> *xyz 0 1
| 25> F        0.543500000      2.663000000      0.176000000
| 26> F       -0.543700000     -1.897100000      0.926400000
| 27> F        1.982100000     -2.613900000      0.193600000
| 28> F        3.066800000      1.934900000     -0.554600000
| 29> F        3.790500000     -0.701800000     -0.547400000
| 30> O       -2.195800000     -1.169300000     -1.529300000
| 31> O       -3.925900000     -1.060000000     -0.066200000
| 32> N       -3.548600000      1.652100000      0.115300000
| 33> C       -1.415000000      0.787700000      0.961300000
| 34> C       -2.392400000      0.825800000     -0.223900000
| 35> C       -0.015300000      0.387200000      0.555700000
| 36> C        0.888900000      1.367900000      0.182800000
| 37> C        0.335700000     -0.952500000      0.564800000
| 38> C        1.627600000     -1.322200000      0.190500000
| 39> C        2.180900000      0.998300000     -0.191400000
| 40> C       -2.929500000     -0.553400000     -0.566000000
| 41> C        2.550100000     -0.346800000     -0.187700000
| 42> H       -1.778900000      0.108000000      1.744000000
| 43> H       -1.358200000      1.774300000      1.442100000
| 44> H       -1.930600000      1.256600000     -1.119800000
| 45> H       -3.242000000      2.605000000      0.308900000
| 46> H       -3.972600000      1.316300000      0.979900000
| 47> H       -2.556300000     -2.053500000     -1.754000000
| 48> *
| 49> 
| 50>                          ****END OF INPUT****
================================================================================

                       *****************************
                       * Geometry Optimization Run *
                       *****************************

Geometry optimization settings:
Update method            Update   .... BFGS
Choice of coordinates    CoordSys .... (2022) Redundant Internals
Initial Hessian          InHess   .... Almloef's Model
Max. no of cycles        MaxIter  .... 69

Convergence Tolerances:
Energy Change            TolE     ....  5.0000e-06 Eh
Max. Gradient            TolMAXG  ....  3.0000e-04 Eh/bohr
RMS Gradient             TolRMSG  ....  1.0000e-04 Eh/bohr
Max. Displacement        TolMAXD  ....  4.0000e-03 bohr
RMS Displacement         TolRMSD  ....  2.0000e-03 bohr
Strict Convergence                .... False

------------------------------------------------------------------------------
                        ORCA OPTIMIZATION COORDINATE SETUP
------------------------------------------------------------------------------

The optimization will be done in redundant internal coordinates (2022)
Making redundant internal coordinates   ...  (2022 redundants) done
Evaluating the initial hessian          ...  (Almloef) done
Evaluating the coordinates              ...  done
Calculating the B-matrix                .... done
Calculating the G-matrix                .... done
The number of degrees of freedom        ....  107

    -----------------------------------------------------------------
                    Redundant Internal Coordinates


    -----------------------------------------------------------------
         Definition                    Initial Value    Approx d2E/dq
    -----------------------------------------------------------------
      1. B(C   9,C   8)                  1.5367         0.364486   
      2. B(C   9,N   7)                  1.4610         0.431064   
      3. B(C  10,C   8)                  1.5113         0.400119   
      4. B(C  11,C  10)                  1.3851         0.636227   
      5. B(C  11,F   0)                  1.3404         0.623914   
      6. B(C  12,F   1)                  1.3403         0.624139   
      7. B(C  12,C  10)                  1.3849         0.636501   
      8. B(C  13,C  12)                  1.3949         0.613619   
      9. B(C  13,F   2)                  1.3395         0.626024   
     10. B(C  14,C  11)                  1.3950         0.613531   
     11. B(C  14,F   3)                  1.3394         0.626209   
     12. B(C  15,C   9)                  1.5191         0.388820   
     13. B(C  15,O   6)                  1.2244         1.028049   
     14. B(C  15,O   5)                  1.3585         0.628187   
     15. B(C  16,F   4)                  1.3394         0.626167   
     16. B(C  16,C  14)                  1.3949         0.613755   
     17. B(C  16,C  13)                  1.3948         0.613892   
     18. B(H  17,C   8)                  1.0987         0.348835   
     19. B(H  18,C   8)                  1.0990         0.348404   
     20. B(H  19,C   9)                  1.0961         0.352091   
     21. B(H  20,N   7)                  1.0196         0.417775   
     22. B(H  21,N   7)                  1.0198         0.417348   
     23. B(H  22,O   5)                  0.9809         0.481443   
     24. A(C  15,O   5,H  22)          111.8756         0.366083   
     25. A(H  20,N   7,H  21)          105.7704         0.299829   
     26. A(C   9,N   7,H  20)          109.5537         0.335406   
     27. A(C   9,N   7,H  21)          109.8533         0.335349   
     28. A(C   9,C   8,H  17)          110.7401         0.321333   
     29. A(H  17,C   8,H  18)          105.1199         0.287901   
     30. A(C  10,C   8,H  17)          109.5124         0.326290   
     31. A(C   9,C   8,H  18)          110.3673         0.321268   
     32. A(C  10,C   8,H  18)          107.9054         0.326224   
     33. A(C   9,C   8,C  10)          112.8703         0.366098   
     34. A(N   7,C   9,C  15)          106.6161         0.372609   
     35. A(C  15,C   9,H  19)          108.7669         0.325253   
     36. A(C   8,C   9,H  19)          111.8488         0.321822   
     37. A(N   7,C   9,C   8)          109.7730         0.368491   
     38. A(N   7,C   9,H  19)          107.5105         0.328843   
     39. A(C   8,C   9,C  15)          112.0895         0.364307   
     40. A(C   8,C  10,C  11)          119.2899         0.403334   
     41. A(C   8,C  10,C  12)          119.2947         0.403365   
     42. A(C  11,C  10,C  12)          121.4154         0.438159   
     43. A(C  10,C  11,C  14)          119.2919         0.435267   
     44. A(F   0,C  11,C  14)          119.5585         0.428992   
     45. A(F   0,C  11,C  10)          121.1496         0.431799   
     46. A(F   1,C  12,C  10)          121.1468         0.431861   
     47. A(C  10,C  12,C  13)          119.2969         0.435312   
     48. A(F   1,C  12,C  13)          119.5563         0.429031   
     49. A(F   2,C  13,C  12)          120.0050         0.429263   
     50. A(C  12,C  13,C  16)          119.9974         0.432488   
     51. A(F   2,C  13,C  16)          119.9976         0.429298   
     52. A(F   3,C  14,C  11)          120.0048         0.429275   
     53. A(C  11,C  14,C  16)          119.9964         0.432460   
     54. A(F   3,C  14,C  16)          119.9988         0.429303   
     55. A(O   5,C  15,O   6)          122.7756         0.470701   
     56. A(O   6,C  15,C   9)          124.8497         0.434268   
     57. A(O   5,C  15,C   9)          112.3546         0.397843   
     58. A(C  13,C  16,C  14)          120.0019         0.432506   
     59. A(F   4,C  16,C  14)          120.0000         0.429298   
     60. A(F   4,C  16,C  13)          119.9981         0.429315   
     61. D(C  15,C   9,N   7,H  21)     67.0020         0.015842   
     62. D(C   8,C   9,N   7,H  21)    -54.6197         0.015842   
     63. D(C  15,C   9,C   8,H  18)   -157.2298         0.010640   
     64. D(C  15,C   9,C   8,C  10)     81.9381         0.010640   
     65. D(C  15,C   9,C   8,H  17)    -41.2475         0.010640   
     66. D(N   7,C   9,C   8,H  18)    -38.9457         0.010640   
     67. D(H  19,C   9,N   7,H  20)    -60.7197         0.015842   
     68. D(C   8,C   9,N   7,H  20)     61.1582         0.015842   
     69. D(N   7,C   9,C   8,C  10)   -159.7778         0.010640   
     70. D(N   7,C   9,C   8,H  17)     77.0366         0.010640   
     71. D(C  15,C   9,N   7,H  20)   -177.2201         0.015842   
     72. D(C  11,C  10,C   8,H  18)    -32.2332         0.011881   
     73. D(C  11,C  10,C   8,H  17)   -146.1439         0.011881   
     74. D(C  12,C  10,C   8,C   9)    -90.0059         0.011881   
     75. D(C  11,C  10,C   8,C   9)     89.9915         0.011881   
     76. D(C  12,C  10,C   8,H  17)     33.8588         0.011881   
     77. D(C  14,C  11,C  10,C  12)     -0.0116         0.028102   
     78. D(C  14,C  11,C  10,C   8)    179.9911         0.028102   
     79. D(F   0,C  11,C  10,C  12)   -179.9963         0.028102   
     80. D(F   0,C  11,C  10,C   8)      0.0064         0.028102   
     81. D(C  13,C  12,C  10,C  11)      0.0053         0.028128   
     82. D(F   1,C  12,C  10,C  11)   -179.9882         0.028128   
     83. D(F   1,C  12,C  10,C   8)      0.0091         0.028128   
     84. D(C  13,C  12,C  10,C   8)   -179.9974         0.028128   
     85. D(C  16,C  13,C  12,C  10)     -0.0054         0.026023   
     86. D(C  16,C  13,C  12,F   1)    179.9882         0.026023   
     87. D(F   2,C  13,C  12,C  10)   -179.9716         0.026023   
     88. D(F   2,C  13,C  12,F   1)      0.0220         0.026023   
     89. D(C  16,C  14,C  11,F   0)   -179.9971         0.026015   
     90. D(F   3,C  14,C  11,C  10)    179.9991         0.026015   
     91. D(F   3,C  14,C  11,F   0)     -0.0160         0.026015   
     92. D(C  16,C  14,C  11,C  10)      0.0179         0.026015   
     93. D(O   6,C  15,C   9,N   7)    -31.8267         0.011251   
     94. D(O   5,C  15,C   9,H  19)     30.9152         0.011251   
     95. D(O   5,C  15,C   9,C   8)    -93.2853         0.011251   
     96. D(O   5,C  15,C   9,N   7)    146.5747         0.011251   
     97. D(C   9,C  15,O   5,H  22)   -179.1657         0.029008   
     98. D(O   6,C  15,C   9,C   8)     88.3133         0.011251   
     99. D(O   6,C  15,O   5,H  22)     -0.7260         0.029008   
    100. D(C  13,C  16,C  14,F   3)   -179.9993         0.026035   
    101. D(F   4,C  16,C  14,C  11)    179.9784         0.026035   
    102. D(F   4,C  16,C  14,F   3)     -0.0027         0.026035   
    103. D(C  14,C  16,C  13,C  12)      0.0119         0.026047   
    104. D(C  14,C  16,C  13,F   2)    179.9781         0.026047   
    105. D(F   4,C  16,C  13,C  12)   -179.9848         0.026047   
    106. D(C  13,C  16,C  14,C  11)     -0.0182         0.026035   
    107. D(F   4,C  16,C  13,F   2)     -0.0185         0.026047   
    -----------------------------------------------------------------

Number of atoms                         .... 23
Number of degrees of freedom            .... 107


         *************************************************************
         *                GEOMETRY OPTIMIZATION CYCLE   1            *
         *************************************************************
---------------------------------
CARTESIAN COORDINATES (ANGSTROEM)
---------------------------------
  F      0.543500    2.663000    0.176000
  F     -0.543700   -1.897100    0.926400
  F      1.982100   -2.613900    0.193600
  F      3.066800    1.934900   -0.554600
  F      3.790500   -0.701800   -0.547400
  O     -2.195800   -1.169300   -1.529300
  O     -3.925900   -1.060000   -0.066200
  N     -3.548600    1.652100    0.115300
  C     -1.415000    0.787700    0.961300
  C     -2.392400    0.825800   -0.223900
  C     -0.015300    0.387200    0.555700
  C      0.888900    1.367900    0.182800
  C      0.335700   -0.952500    0.564800
  C      1.627600   -1.322200    0.190500
  C      2.180900    0.998300   -0.191400
  C     -2.929500   -0.553400   -0.566000
  C      2.550100   -0.346800   -0.187700
  H     -1.778900    0.108000    1.744000
  H     -1.358200    1.774300    1.442100
  H     -1.930600    1.256600   -1.119800
  H     -3.242000    2.605000    0.308900
  H     -3.972600    1.316300    0.979900
  H     -2.556300   -2.053500   -1.754000

----------------------------
CARTESIAN COORDINATES (A.U.)
----------------------------
  NO LB      ZA    FRAG     MASS         X           Y           Z
   0 F     9.0000    0    18.998    1.027066    5.032341    0.332592
   1 F     9.0000    0    18.998   -1.027444   -3.584999    1.750642
   2 F     9.0000    0    18.998    3.745626   -4.939555    0.365851
   3 F     9.0000    0    18.998    5.795412    3.656431   -1.048042
   4 F     9.0000    0    18.998    7.163007   -1.326210   -1.034436
   5 O     8.0000    0    15.999   -4.149461   -2.209657   -2.889958
   6 O     8.0000    0    15.999   -7.418876   -2.003110   -0.125100
   7 N     7.0000    0    14.007   -6.705882    3.122017    0.217885
   8 C     6.0000    0    12.011   -2.673962    1.488537    1.816594
   9 C     6.0000    0    12.011   -4.520981    1.560536   -0.423110
  10 C     6.0000    0    12.011   -0.028913    0.731702    1.050121
  11 C     6.0000    0    12.011    1.679778    2.584956    0.345442
  12 C     6.0000    0    12.011    0.634381   -1.799964    1.067317
  13 C     6.0000    0    12.011    3.075718   -2.498596    0.359993
  14 C     6.0000    0    12.011    4.121304    1.886514   -0.361694
  15 C     6.0000    0    12.011   -5.535953   -1.045774   -1.069585
  16 C     6.0000    0    12.011    4.818991   -0.655357   -0.354702
  17 H     1.0000    0     1.008   -3.361634    0.204090    3.295682
  18 H     1.0000    0     1.008   -2.566626    3.352941    2.725174
  19 H     1.0000    0     1.008   -3.648305    2.374630   -2.116115
  20 H     1.0000    0     1.008   -6.126492    4.922737    0.583736
  21 H     1.0000    0     1.008   -7.507126    2.487447    1.851743
  22 H     1.0000    0     1.008   -4.830707   -3.880553   -3.314580

--------------------------------
INTERNAL COORDINATES (ANGSTROEM)
--------------------------------
 F      0   0   0     0.000000000000     0.00000000     0.00000000
 F      1   0   0     4.747590547846     0.00000000     0.00000000
 F      2   1   0     2.725887693945    89.87929686     0.00000000
 F      1   2   3     2.725976680018    89.87322842     0.00000000
 F      3   2   1     2.734139347217   120.12070973     0.00000000
 O      2   1   3     3.047882829113    76.55107002   248.97447176
 O      6   2   1     2.268447510964    84.56315228   257.57726655
 N      7   6   2     2.744227386716    89.16442239    96.15920403
 C      8   7   6     2.452580746887    78.11793673   298.10793784
 C      8   7   6     1.461036197361    62.25812714   332.83306569
 C      9   8   7     1.511314560242   143.75705931    91.36148016
 C      1   2   3     1.340384799227    29.55890628     0.00000000
 C      2   1   3     1.340286566373    29.56009084     0.00000000
 C      3   2   1     1.339465845029    60.11955022     0.00000000
 C      4   1   2     1.339385161184    60.12240717     0.00000000
 C      7   6   2     1.224441325667    30.23424571    79.04247505
 C      5   3   2     1.339403318646    60.00318131     0.00000000
 H      9   8   7     1.098651259500   100.11617273   306.54827626
 H      9   8   7     1.098987916221    83.07729946   202.35212557
 H     10   8   7     1.096122570701   107.51049100   129.10236103
 H      8   7   6     1.019560164973   167.84484315   283.06427910
 H      8   7   6     1.019838614684    70.94334918   206.84284715
 H      6   2   1     0.980948510371    99.70203781   173.72474883

---------------------------
INTERNAL COORDINATES (A.U.)
---------------------------
 F      0   0   0     0.000000000000     0.00000000     0.00000000
 F      1   0   0     8.971645931423     0.00000000     0.00000000
 F      2   1   0     5.151181213382    89.87929686     0.00000000
 F      1   2   3     5.151349372689    89.87322842     0.00000000
 F      3   2   1     5.166774578218   120.12070973     0.00000000
 O      2   1   3     5.759663835304    76.55107002   248.97447176
 O      6   2   1     4.286744544898    84.56315228   257.57726655
 N      7   6   2     5.185838210099    89.16442239    96.15920403
 C      8   7   6     4.634705932944    78.11793673   298.10793784
 C      8   7   6     2.760958284759    62.25812714   332.83306569
 C      9   8   7     2.855970621065   143.75705931    91.36148016
 C      1   2   3     2.532960184611    29.55890628     0.00000000
 C      2   1   3     2.532774551419    29.56009084     0.00000000
 C      3   2   1     2.531223612847    60.11955022     0.00000000
 C      4   1   2     2.531071142476    60.12240717     0.00000000
 C      7   6   2     2.313858772565    30.23424571    79.04247505
 C      5   3   2     2.531105455106    60.00318131     0.00000000
 H      9   8   7     2.076149997142   100.11617273   306.54827626
 H      9   8   7     2.076786186147    83.07729946   202.35212557
 H     10   8   7     2.071371467834   107.51049100   129.10236103
 H      8   7   6     1.926689488855   167.84484315   283.06427910
 H      8   7   6     1.927215682550    70.94334918   206.84284715
 H      6   2   1     1.853724036080    99.70203781   173.72474883

---------------------
BASIS SET INFORMATION
---------------------
There are 5 groups of distinct atoms

 Group   1 Type F   : 10s4p1d contracted to 3s2p1d pattern {631/31/1}
 Group   2 Type O   : 10s4p1d contracted to 3s2p1d pattern {631/31/1}
 Group   3 Type N   : 10s4p1d contracted to 3s2p1d pattern {631/31/1}
 Group   4 Type C   : 10s4p1d contracted to 3s2p1d pattern {631/31/1}
 Group   5 Type H   : 4s1p contracted to 2s1p pattern {31/1}

Atom   0F    basis set group =>   1
Atom   1F    basis set group =>   1
Atom   2F    basis set group =>   1
Atom   3F    basis set group =>   1
Atom   4F    basis set group =>   1
Atom   5O    basis set group =>   2
Atom   6O    basis set group =>   2
Atom   7N    basis set group =>   3
Atom   8C    basis set group =>   4
Atom   9C    basis set group =>   4
Atom  10C    basis set group =>   4
Atom  11C    basis set group =>   4
Atom  12C    basis set group =>   4
Atom  13C    basis set group =>   4
Atom  14C    basis set group =>   4
Atom  15C    basis set group =>   4
Atom  16C    basis set group =>   4
Atom  17H    basis set group =>   5
Atom  18H    basis set group =>   5
Atom  19H    basis set group =>   5
Atom  20H    basis set group =>   5
Atom  21H    basis set group =>   5
Atom  22H    basis set group =>   5
---------------------------------
AUXILIARY/J BASIS SET INFORMATION
---------------------------------
There are 5 groups of distinct atoms

 Group   1 Type F   : 12s5p4d2f1g contracted to 6s4p3d1f1g pattern {711111/2111/211/2/1}
 Group   2 Type O   : 12s5p4d2f1g contracted to 6s4p3d1f1g pattern {711111/2111/211/2/1}
 Group   3 Type N   : 12s5p4d2f1g contracted to 6s4p3d1f1g pattern {711111/2111/211/2/1}
 Group   4 Type C   : 12s5p4d2f1g contracted to 6s4p3d1f1g pattern {711111/2111/211/2/1}
 Group   5 Type H   : 5s2p1d contracted to 3s1p1d pattern {311/2/1}

Atom   0F    basis set group =>   1
Atom   1F    basis set group =>   1
Atom   2F    basis set group =>   1
Atom   3F    basis set group =>   1
Atom   4F    basis set group =>   1
Atom   5O    basis set group =>   2
Atom   6O    basis set group =>   2
Atom   7N    basis set group =>   3
Atom   8C    basis set group =>   4
Atom   9C    basis set group =>   4
Atom  10C    basis set group =>   4
Atom  11C    basis set group =>   4
Atom  12C    basis set group =>   4
Atom  13C    basis set group =>   4
Atom  14C    basis set group =>   4
Atom  15C    basis set group =>   4
Atom  16C    basis set group =>   4
Atom  17H    basis set group =>   5
Atom  18H    basis set group =>   5
Atom  19H    basis set group =>   5
Atom  20H    basis set group =>   5
Atom  21H    basis set group =>   5
Atom  22H    basis set group =>   5


           ************************************************************
           *        Program running with 2 parallel MPI-processes     *
           *              working on a common directory               *
           ************************************************************
------------------------------------------------------------------------------
                             ORCA STARTUP CALCULATIONS
                           -- RI-GTO INTEGRALS CHOSEN --
------------------------------------------------------------------------------
------------------------------------------------------------------------------
                   ___                                                        
                  /   \      - P O W E R E D   B Y -                         
                 /     \                                                     
                 |  |  |   _    _      __       _____    __    __             
                 |  |  |  | |  | |    /  \     |  _  \  |  |  /  |          
                  \  \/   | |  | |   /    \    | | | |  |  | /  /          
                 / \  \   | |__| |  /  /\  \   | |_| |  |  |/  /          
                |  |  |   |  __  | /  /__\  \  |    /   |      \           
                |  |  |   | |  | | |   __   |  |    \   |  |\   \          
                \     /   | |  | | |  |  |  |  | |\  \  |  | \   \       
                 \___/    |_|  |_| |__|  |__|  |_| \__\ |__|  \__/        
                                                                              
                      - O R C A' S   B I G   F R I E N D -                    
                                      &                                       
                       - I N T E G R A L  F E E D E R -                       
                                                                              
 v1 FN, 2020, v2 2021, v3 2022-2024                                           
------------------------------------------------------------------------------


----------------------
SHARK INTEGRAL PACKAGE
----------------------

Number of atoms                             ...     23
Number of basis functions                   ...    268
Number of shells                            ...    120
Maximum angular momentum                    ...      2
Integral batch strategy                     ... SHARK/LIBINT Hybrid
RI-J (if used) integral strategy            ... SPLIT-RIJ (Revised 2003 algorithm where possible)
Printlevel                                  ...      1
Contraction scheme used                     ... SEGMENTED contraction
Prescreening option                         ... SCHWARTZ
   Thresh                                   ... 2.500e-11
   Tcut                                     ... 2.500e-12
   Tpresel                                  ... 2.500e-12 
Coulomb Range Separation                    ... NOT USED
Exchange Range Separation                   ... NOT USED
Multipole approximations                    ... NOT USED
Finite Nucleus Model                        ... NOT USED
CABS basis                                  ... NOT available
Auxiliary Coulomb fitting basis             ... AVAILABLE
   # of basis functions in Aux-J            ...    899
   # of shells in Aux-J                     ...    285
   Maximum angular momentum in Aux-J        ...      4
Auxiliary J/K fitting basis                 ... NOT available
Auxiliary Correlation fitting basis         ... NOT available
Auxiliary 'external' fitting basis          ... NOT available

Checking pre-screening integrals            ... done (  0.0 sec) Dimension = 120
   => SHARK Basis and OBASIS are compatible. Storing Pre-screening
Shell pair information
Shell pair cut-off parameter TPreSel        ...   2.5e-12
Total number of shell pairs                 ...      7260
Shell pairs after pre-screening             ...      5685
Total number of primitive shell pairs       ...     41130
Primitive shell pairs kept                  ...     18596
          la=0 lb=0:   1506 shell pairs
          la=1 lb=0:   2017 shell pairs
          la=1 lb=1:    696 shell pairs
          la=2 lb=0:    793 shell pairs
          la=2 lb=1:    553 shell pairs
          la=2 lb=2:    120 shell pairs

Checking whether 4 symmetric matrices of dimension 268 fit in memory
:Max Core in MB      =   3000.00
 MB in use           =     11.32
 MB left             =   2988.68
 MB needed           =      1.10
 Data fit in memory  = YES
Calculating RI/J V-Matrix + Cholesky decomp.... done (  0.1 sec)
Calculating Nuclear repulsion               ... done (  0.0 sec) ENN=   1293.784847896050 Eh

Diagonalization of the overlap matrix:
Smallest eigenvalue                        ... 5.386e-04
Time for diagonalization                   ...    0.010 sec
Threshold for overlap eigenvalues          ... 1.000e-07
Number of eigenvalues below threshold      ... 0
Time for construction of square roots      ...    0.003 sec
Total time needed                          ...    0.015 sec

-------------------
DFT GRID GENERATION
-------------------

General Integration Accuracy     IntAcc      ... 4.388
Radial Grid Type                 RadialGrid  ... OptM3 with GC (2021)
Angular Grid (max. ang.)         AngularGrid ... 4 (Lebedev-302)
Angular grid pruning method      GridPruning ... 4 (adaptive)
Weight generation scheme         WeightScheme... mBecke (2022)
Basis function cutoff            BFCut       ... 1.0000e-11
Integration weight cutoff        WCut        ... 1.0000e-14
Partially contracted basis set               ... off
Rotationally invariant grid construction     ... off
Angular grids for H and He will be reduced by one unit

Total number of grid points                  ...   121598
Total number of batches                      ...     1911
Average number of points per batch           ...       63
Average number of grid points per atom       ...     5287

--------------------
COSX GRID GENERATION
--------------------

GRIDX 1
-------
General Integration Accuracy     IntAcc      ... 3.816
Radial Grid Type                 RadialGrid  ... OptM3 with GC (2021)
Angular Grid (max. ang.)         AngularGrid ... 1 (Lebedev-50)
Angular grid pruning method      GridPruning ... 4 (adaptive)
Weight generation scheme         WeightScheme... mBecke (2022)
Basis function cutoff            BFCut       ... 1.0000e-11
Integration weight cutoff        WCut        ... 1.0000e-14
Partially contracted basis set               ... on
Rotationally invariant grid construction     ... off
Angular grids for H and He will be reduced by one unit

Total number of grid points                  ...    15368
Total number of batches                      ...      135
Average number of points per batch           ...      113
Average number of grid points per atom       ...      668
UseSFitting                                  ... on

GRIDX 2
-------
General Integration Accuracy     IntAcc      ... 4.020
Radial Grid Type                 RadialGrid  ... OptM3 with GC (2021)
Angular Grid (max. ang.)         AngularGrid ... 2 (Lebedev-110)
Angular grid pruning method      GridPruning ... 4 (adaptive)
Weight generation scheme         WeightScheme... mBecke (2022)
Basis function cutoff            BFCut       ... 1.0000e-11
Integration weight cutoff        WCut        ... 1.0000e-14
Partially contracted basis set               ... on
Rotationally invariant grid construction     ... off
Angular grids for H and He will be reduced by one unit

Total number of grid points                  ...    34902
Total number of batches                      ...      284
Average number of points per batch           ...      122
Average number of grid points per atom       ...     1517
UseSFitting                                  ... on

GRIDX 3
-------
General Integration Accuracy     IntAcc      ... 4.338
Radial Grid Type                 RadialGrid  ... OptM3 with GC (2021)
Angular Grid (max. ang.)         AngularGrid ... 3 (Lebedev-194)
Angular grid pruning method      GridPruning ... 4 (adaptive)
Weight generation scheme         WeightScheme... mBecke (2022)
Basis function cutoff            BFCut       ... 1.0000e-11
Integration weight cutoff        WCut        ... 1.0000e-14
Partially contracted basis set               ... on
Rotationally invariant grid construction     ... off
Angular grids for H and He will be reduced by one unit

Total number of grid points                  ...    76968
Total number of batches                      ...      614
Average number of points per batch           ...      125
Average number of grid points per atom       ...     3346
UseSFitting                                  ... on
Grids setup in   2.6 sec
Initializing property integral containers    ... done (  0.0 sec)

SHARK setup successfully completed in   3.0 seconds

Maximum memory used throughout the entire STARTUP-calculation: 41.5 MB


           ************************************************************
           *        Program running with 2 parallel MPI-processes     *
           *              working on a common directory               *
           ************************************************************
-------------------------------------------------------------------------------
                                 ORCA GUESS
                   Start orbitals & Density for SCF / CASSCF
-------------------------------------------------------------------------------

------------
SCF SETTINGS
------------
Hamiltonian:
 Density Functional     Method          .... DFT(GTOs)
 Exchange Functional    Exchange        .... B88
   X-Alpha parameter    XAlpha          ....  0.666667
   Becke's b parameter  XBeta           ....  0.004200
 Correlation Functional Correlation     .... LYP
 LDA part of GGA corr.  LDAOpt          .... VWN-5
 Gradients option       PostSCFGGA      .... off
 Hybrid DFT is turned on
   Fraction HF Exchange ScalHFX         ....  0.200000
   Scaling of DF-GGA-X  ScalDFX         ....  0.720000
   Scaling of DF-GGA-C  ScalDFC         ....  0.810000
   Scaling of DF-LDA-C  ScalLDAC        ....  1.000000
   Perturbative correction              ....  0.000000
   NL short-range parameter             ....  4.800000
 RI-approximation to the Coulomb term is turned on
   Number of AuxJ basis functions       .... 899
   RIJ-COSX (HFX calculated with COS-X)).... on


General Settings:
 Integral files         IntName         .... /kaggle/working/Phe-F5-1/Phe-F5_InterFrag
 Hartree-Fock type      HFTyp           .... RHF
 Total Charge           Charge          ....    0
 Multiplicity           Mult            ....    1
 Number of Electrons    NEL             ....  128
 Basis Dimension        Dim             ....  268
 Nuclear Repulsion      ENuc            ....   1293.7848478960 Eh

Convergence Acceleration:
 AO-DIIS                CNVDIIS         .... on
   Start iteration      DIISMaxIt       ....    12
   Startup error        DIISStart       ....  0.200000
   # of expansion vecs  DIISMaxEq       ....     5
   Bias factor          DIISBfac        ....   1.050
   Max. coefficient     DIISMaxC        ....  10.000
 MO-DIIS                CNVKDIIS        .... off
 Trust-Rad. Augm. Hess. CNVTRAH         .... auto
   Auto Start mean grad. ratio tolernc. ....  1.125000
   Auto Start start iteration           ....    50
   Auto Start num. interpolation iter.  ....    10
   Max. Number of Micro iterations      ....    24
   Max. Number of Macro iterations      .... Maxiter - #DIIS iter
   Number of Davidson start vectors     ....     2
   Converg. threshold    (grad. norm)   ....   1.000e-05
   Grad. Scal. Fac. for Micro threshold ....   0.100
   Minimum threshold for Micro iter.    ....   1.000e-02
   NR start threshold (gradient norm)   ....   1.000e-04
   Initial trust radius                 ....   0.400
   Minimum AH scaling param. (alpha)    ....   1.000
   Maximum AH scaling param. (alpha)    .... 1000.000
   Quad. conv. algorithm                .... NR
   White noise on init. David. guess    .... on
   Maximum white noise                  ....   0.010
   Pseudo random numbers                .... off
   Inactive MOs                         .... canonical
   Orbital update algorithm             .... Taylor
   Preconditioner                       .... Diag
   Full preconditioner red. dimension   ....   250
 SOSCF                 CNVSOSCF           .... on
   Start iteration     SOSCFMaxIt         ....   150
   Startup grad/error  SOSCFStart         ....  0.000330
   Hessian update      SOSCFHessUp        .... L-BFGS
   Autom. constraints  SOSCFAutoConstrain .... off
 Level Shifting         CNVShift        .... on
   Level shift para.    LevelShift      ....    0.2500
   Turn off err/grad.   ShiftErr        ....    0.0010
 Zerner damping         CNVZerner       .... off
 Static damping         CNVDamp         .... on
   Fraction old density DampFac         ....    0.7000
   Max. Damping (<1)    DampMax         ....    0.9800
   Min. Damping (>=0)   DampMin         ....    0.0000
   Turn off err/grad.   DampErr         ....    0.1000

SCF Procedure:
 Maximum # iterations   MaxIter         ....  1000
 SCF integral mode      SCFMode         .... Direct
   Integral package                     .... SHARK and LIBINT hybrid scheme
 Reset frequency        DirectResetFreq ....    20
 Integral Threshold     Thresh          ....  2.500e-11 Eh
 Primitive CutOff       TCut            ....  2.500e-12 Eh

Convergence Tolerance:
 Convergence Check Mode ConvCheckMode   .... Total+1el-Energy
 Convergence forced     ConvForced      .... 0
 Energy Change          TolE            ....  1.000e-08 Eh
 1-El. energy change                    ....  1.000e-05 Eh
 Orbital Gradient       TolG            ....  1.000e-05
 Orbital Rotation angle TolX            ....  1.000e-05
 DIIS Error             TolErr          ....  5.000e-07

------------------------------
INITIAL GUESS: MODEL POTENTIAL
------------------------------
Loading Hartree-Fock densities                     ... done
Calculating cut-offs                               ... done
Initializing the effective Hamiltonian             ... done
Setting up the integral package (SHARK)            ... done
Starting the Coulomb interaction                   ... done (   0.3 sec)
Making the grid                                    ... done (   0.5 sec)
Mapping shells                                     ... done
Starting the XC term evaluation                    ... done (   0.2 sec)
  promolecular density results
     # of electrons  =    127.998885294
     EX              =   -121.341226149
     EC              =     -4.612905000
     EX+EC           =   -125.954131149
Transforming the Hamiltonian                       ... done (   0.0 sec)
Diagonalizing the Hamiltonian                      ... done (   0.0 sec)
Back transforming the eigenvectors                 ... done (   0.0 sec)
Now organizing SCF variables                       ... done
                      ------------------
                      INITIAL GUESS DONE (   1.1 sec)
                      ------------------
             **** ENERGY FILE WAS UPDATED (/kaggle/working/Phe-F5-1/Phe-F5_InterFrag.en.tmp) ****
Finished Guess after   1.5 sec
Maximum memory used throughout the entire GUESS-calculation: 16.9 MB


           ************************************************************
           *        Program running with 2 parallel MPI-processes     *
           *              working on a common directory               *
           ************************************************************

-------------------------------------------------------------------------------------------
                                      ORCA LEAN-SCF
                              memory conserving SCF solver
-------------------------------------------------------------------------------------------

--------------------
CPCM SOLVATION MODEL
--------------------
CPCM parameters:
  Epsilon                                         ...      78.3550
  Refrac                                          ...       1.3328
  Rsolv                                           ...       1.3000
  Surface type                                    ... GAUSSIAN VDW
  Discretization scheme                           ... Constant charge density
    Threshold for H atoms                         ...       5.0000 (charges/Ang^2)
    Threshold for non-H atoms                     ...       5.0000 (charges/Ang^2)
  Epsilon function type                           ...         CPCM
Solvent:                                          ... WATER
SMD-CDS solvent descriptors:
  Soln                                            ...       1.3328
  Soln25                                          ...       1.3323
  Sola                                            ...       0.0000
  Solb                                            ...       0.0000
  Solg                                            ...       0.0000
  Solc                                            ...       0.0000
  Solh                                            ...       0.0000
Radii:
  Scheme                                          ... Element-dependent radii
  Radius for F  used is    3.2692 Bohr (=   1.7300 Ang.)
  Radius for O  used is    2.8724 Bohr (=   1.5200 Ang.)
  Radius for N  used is    3.5716 Bohr (=   1.8900 Ang.)
  Radius for C  used is    3.4960 Bohr (=   1.8500 Ang.)
  Radius for H  used is    2.2677 Bohr (=   1.2000 Ang.)
Calculating surface                               ...        done! (  0.0s)
Cavity surface points                             ...         1929
Cavity Volume                                     ...    1459.4174
Cavity Surface-area                               ...     858.0519
Calculating surface distance matrix               ...        done! (  0.0s)
Performing Cholesky decomposition & store         ...        done! (  0.2s)
Overall time for CPCM initialization              ...                 0.2s

----------------------------------------D-I-I-S--------------------------------------------
Iteration    Energy (Eh)           Delta-E    RMSDP     MaxDP     DIISErr   Damp  Time(sec)
-------------------------------------------------------------------------------------------
               ***  Starting incremental Fock matrix formation  ***
    1    -1050.1441400836497451     0.00e+00  3.05e-03  8.69e-02  2.60e-01  0.700   8.9
    2    -1050.2927267392055910    -1.49e-01  1.95e-03  5.15e-02  1.16e-01  0.700   4.5
                               ***Turning on AO-DIIS***
    3    -1050.3486942238264419    -5.60e-02  7.54e-04  1.86e-02  3.52e-02  0.700   4.3
    4    -1050.3833261817517268    -3.46e-02  1.28e-03  2.75e-02  1.43e-02  0.000   4.2
    5    -1050.4602279191199159    -7.69e-02  2.58e-04  5.18e-03  4.26e-03  0.000   4.4
    6    -1050.4605458737146364    -3.18e-04  7.78e-05  1.83e-03  1.76e-03  0.000   4.0
    7    -1050.4605641539255885    -1.83e-05  3.72e-05  7.98e-04  8.76e-04  0.000   3.5
               *** Restarting incremental Fock matrix formation ***
                             ****Resetting DIIS****
    8    -1050.4606606265183473    -9.65e-05  3.07e-05  9.71e-04  6.11e-04  0.000   8.7
    9    -1050.4606589801019254     1.65e-06  1.92e-05  7.20e-04  1.07e-03  0.000   5.6
                              *** Initializing SOSCF ***
---------------------------------------S-O-S-C-F--------------------------------------
Iteration    Energy (Eh)           Delta-E    RMSDP     MaxDP     MaxGrad    Time(sec)
--------------------------------------------------------------------------------------
   10    -1050.4606620916847532    -3.11e-06  3.69e-06  1.39e-04  1.52e-04     3.1
               *** Restarting incremental Fock matrix formation ***
   11    -1050.4606620690024101     2.27e-08  4.86e-06  1.60e-04  4.92e-05     8.9
   12    -1050.4606620065396783     6.25e-08  3.13e-06  1.13e-04  9.71e-05     4.5
   13    -1050.4606621017487669    -9.52e-08  6.97e-07  1.68e-05  4.55e-06     4.2
   14    -1050.4606620980403022     3.71e-09  4.36e-07  1.04e-05  5.54e-06     3.5
                 **** Energy Check signals convergence ****

               *****************************************************
               *                     SUCCESS                       *
               *           SCF CONVERGED AFTER  14 CYCLES          *
               *****************************************************

Recomputing exchange energy using gridx3       ... done (   13.875 sec)
Old exchange energy                            :    -24.460210631 Eh
New exchange energy                            :    -24.460243893 Eh
Exchange energy change after final integration :     -0.000033262 Eh
Total energy after final integration           :  -1050.460695365 Eh

SMD CDS free energy correction energy :                 7.41453     Kcal/mol
Total Energy after SMD CDS correction =             -1050.448879555 Eh
             **** ENERGY FILE WAS UPDATED (/kaggle/working/Phe-F5-1/Phe-F5_InterFrag.en.tmp) ****

----------------
TOTAL SCF ENERGY
----------------

Total Energy       :      -1050.44887955452668 Eh          -28584.16720 eV

Components:
Nuclear Repulsion  :       1293.78484789604954 Eh           35205.67553 eV
Electronic Energy  :      -2344.21608595424232 Eh          -63789.36269 eV
One Electron Energy:      -4019.78534595116935 Eh         -109383.92023 eV
Two Electron Energy:       1675.56925999692703 Eh           45594.55755 eV
CPCM Dielectric    :         -0.02942404456512 Eh              -0.80067 eV
SMD CDS (Gcds)     :          0.01181581023723 Eh               0.32152 eV

Virial components:
Potential Energy   :      -2095.29537863623773 Eh          -57015.88588 eV
Kinetic Energy     :       1044.84649908171127 Eh           28431.71868 eV
Virial Ratio       :          2.00536191725554

DFT components:
N(Alpha)           :       63.999914452814 electrons
N(Beta)            :       63.999914452814 electrons
N(Total)           :      127.999828905627 electrons
E(X)               :      -97.329734162354 Eh       
E(C)               :       -5.411540708019 Eh       
E(XC)              :     -102.741274870373 Eh       

CPCM Solvation Model Properties:
Surface-charge          :         -0.01722121316301
Corrected charge        :          0.00000000000000
Outlying charge corr.   :          0.00001887878838 Eh               0.00051 eV
Free-energy (cav+disp)  :          0.01181581023723 Eh               0.32152 eV

---------------
SCF CONVERGENCE
---------------

  Last Energy change         ...   -3.7085e-09  Tolerance :   1.0000e-08
  Last MAX-Density change    ...    1.0373e-05  Tolerance :   1.0000e-07
  Last RMS-Density change    ...    4.3637e-07  Tolerance :   5.0000e-09
  Last DIIS Error            ...    1.5174e-04  Tolerance :   5.0000e-07
  Last Orbital Gradient      ...    5.5409e-06  Tolerance :   1.0000e-05
  Last Orbital Rotation      ...    5.4406e-06  Tolerance :   1.0000e-05


----------------
ORBITAL ENERGIES
----------------

  NO   OCC          E(Eh)            E(eV) 
   0   2.0000     -24.725214      -672.8073 
   1   2.0000     -24.724942      -672.7999 
   2   2.0000     -24.723406      -672.7581 
   3   2.0000     -24.721906      -672.7173 
   4   2.0000     -24.721833      -672.7153 
   5   2.0000     -19.190139      -522.1902 
   6   2.0000     -19.142773      -520.9013 
   7   2.0000     -14.304271      -389.2390 
   8   2.0000     -10.322456      -280.8883 
   9   2.0000     -10.292870      -280.0832 
  10   2.0000     -10.288865      -279.9742 
  11   2.0000     -10.288746      -279.9710 
  12   2.0000     -10.286819      -279.9186 
  13   2.0000     -10.286644      -279.9138 
  14   2.0000     -10.223193      -278.1872 
  15   2.0000     -10.211501      -277.8691 
  16   2.0000     -10.191191      -277.3164 
  17   2.0000      -1.252201       -34.0741 
  18   2.0000      -1.246715       -33.9248 
  19   2.0000      -1.241647       -33.7869 
  20   2.0000      -1.233840       -33.5745 
  21   2.0000      -1.229732       -33.4627 
  22   2.0000      -1.096892       -29.8479 
  23   2.0000      -1.012713       -27.5573 
  24   2.0000      -0.896014       -24.3818 
  25   2.0000      -0.884701       -24.0739 
  26   2.0000      -0.799098       -21.7446 
  27   2.0000      -0.769957       -20.9516 
  28   2.0000      -0.733251       -19.9528 
  29   2.0000      -0.684978       -18.6392 
  30   2.0000      -0.654593       -17.8124 
  31   2.0000      -0.635205       -17.2848 
  32   2.0000      -0.588471       -16.0131 
  33   2.0000      -0.583124       -15.8676 
  34   2.0000      -0.580792       -15.8042 
  35   2.0000      -0.559794       -15.2328 
  36   2.0000      -0.537890       -14.6367 
  37   2.0000      -0.529797       -14.4165 
  38   2.0000      -0.526005       -14.3133 
  39   2.0000      -0.513539       -13.9741 
  40   2.0000      -0.509128       -13.8541 
  41   2.0000      -0.486373       -13.2349 
  42   2.0000      -0.483473       -13.1560 
  43   2.0000      -0.478511       -13.0209 
  44   2.0000      -0.459725       -12.5097 
  45   2.0000      -0.455873       -12.4049 
  46   2.0000      -0.451671       -12.2906 
  47   2.0000      -0.448254       -12.1976 
  48   2.0000      -0.435674       -11.8553 
  49   2.0000      -0.430605       -11.7173 
  50   2.0000      -0.428573       -11.6621 
  51   2.0000      -0.411952       -11.2098 
  52   2.0000      -0.407984       -11.1018 
  53   2.0000      -0.397962       -10.8291 
  54   2.0000      -0.388179       -10.5629 
  55   2.0000      -0.374614       -10.1938 
  56   2.0000      -0.366473        -9.9722 
  57   2.0000      -0.358623        -9.7586 
  58   2.0000      -0.339634        -9.2419 
  59   2.0000      -0.320625        -8.7247 
  60   2.0000      -0.282294        -7.6816 
  61   2.0000      -0.256901        -6.9906 
  62   2.0000      -0.245464        -6.6794 
  63   2.0000      -0.232488        -6.3263 
  64   0.0000      -0.011659        -0.3173 
  65   0.0000      -0.005556        -0.1512 
  66   0.0000       0.001951         0.0531 
  67   0.0000       0.023193         0.6311 
  68   0.0000       0.100678         2.7396 
  69   0.0000       0.102696         2.7945 
  70   0.0000       0.114346         3.1115 
  71   0.0000       0.139023         3.7830 
  72   0.0000       0.145585         3.9616 
  73   0.0000       0.149419         4.0659 
  74   0.0000       0.164916         4.4876 
  75   0.0000       0.175827         4.7845 
  76   0.0000       0.205746         5.5986 
  77   0.0000       0.210901         5.7389 
  78   0.0000       0.221845         6.0367 
  79   0.0000       0.248298         6.7565 
  80   0.0000       0.262693         7.1482 
  81   0.0000       0.275358         7.4929 
  82   0.0000       0.283641         7.7183 
  83   0.0000       0.322065         8.7638 
  84   0.0000       0.335323         9.1246 
  85   0.0000       0.344821         9.3831 
  86   0.0000       0.363282         9.8854 
  87   0.0000       0.392448        10.6791 
  88   0.0000       0.407772        11.0960 
  89   0.0000       0.459584        12.5059 
  90   0.0000       0.481638        13.1060 
  91   0.0000       0.486692        13.2436 
  92   0.0000       0.497032        13.5249 
  93   0.0000       0.523099        14.2342 
  94   0.0000       0.532981        14.5031 
  95   0.0000       0.536290        14.5932 
  96   0.0000       0.549662        14.9571 
  97   0.0000       0.562602        15.3092 
  98   0.0000       0.567887        15.4530 
  99   0.0000       0.576554        15.6888 
 100   0.0000       0.596646        16.2356 
 101   0.0000       0.607642        16.5348 
 102   0.0000       0.620670        16.8893 
 103   0.0000       0.626355        17.0440 
 104   0.0000       0.639674        17.4064 
 105   0.0000       0.642949        17.4955 
 106   0.0000       0.646589        17.5946 
 107   0.0000       0.673568        18.3287 
 108   0.0000       0.690485        18.7890 
 109   0.0000       0.714405        19.4399 
 110   0.0000       0.724241        19.7076 
 111   0.0000       0.755347        20.5540 
 112   0.0000       0.762005        20.7352 
 113   0.0000       0.783048        21.3078 
 114   0.0000       0.796106        21.6632 
 115   0.0000       0.807760        21.9803 
 116   0.0000       0.825446        22.4615 
 117   0.0000       0.841508        22.8986 
 118   0.0000       0.854821        23.2609 
 119   0.0000       0.864252        23.5175 
 120   0.0000       0.867428        23.6039 
 121   0.0000       0.894560        24.3422 
 122   0.0000       0.900059        24.4918 
 123   0.0000       0.905653        24.6441 
 124   0.0000       0.916070        24.9275 
 125   0.0000       0.926983        25.2245 
 126   0.0000       0.939083        25.5537 
 127   0.0000       0.965657        26.2769 
 128   0.0000       0.988360        26.8946 
 129   0.0000       0.994485        27.0613 
 130   0.0000       1.003533        27.3075 
 131   0.0000       1.048949        28.5433 
 132   0.0000       1.076517        29.2935 
 133   0.0000       1.096796        29.8453 
 134   0.0000       1.106757        30.1164 
 135   0.0000       1.124872        30.6093 
 136   0.0000       1.138222        30.9726 
 137   0.0000       1.152473        31.3604 
 138   0.0000       1.177541        32.0425 
 139   0.0000       1.184355        32.2279 
 140   0.0000       1.209837        32.9213 
 141   0.0000       1.215802        33.0836 
 142   0.0000       1.235861        33.6295 
 143   0.0000       1.242199        33.8019 
 144   0.0000       1.243315        33.8323 
 145   0.0000       1.246135        33.9091 
 146   0.0000       1.259495        34.2726 
 147   0.0000       1.312398        35.7122 
 148   0.0000       1.316625        35.8272 
 149   0.0000       1.330900        36.2156 
 150   0.0000       1.341894        36.5148 
 151   0.0000       1.361017        37.0352 
 152   0.0000       1.375672        37.4339 
 153   0.0000       1.394755        37.9532 
 154   0.0000       1.395373        37.9700 
 155   0.0000       1.412302        38.4307 
 156   0.0000       1.415114        38.5072 
 157   0.0000       1.432254        38.9736 
 158   0.0000       1.437754        39.1233 
 159   0.0000       1.446840        39.3705 
 160   0.0000       1.465144        39.8686 
 161   0.0000       1.467782        39.9404 
 162   0.0000       1.481266        40.3073 
 163   0.0000       1.494886        40.6779 
 164   0.0000       1.531915        41.6855 
 165   0.0000       1.546834        42.0915 
 166   0.0000       1.600122        43.5415 
 167   0.0000       1.645963        44.7889 
 168   0.0000       1.653067        44.9822 
 169   0.0000       1.689968        45.9864 
 170   0.0000       1.697909        46.2025 
 171   0.0000       1.711267        46.5659 
 172   0.0000       1.728351        47.0308 
 173   0.0000       1.737546        47.2810 
 174   0.0000       1.744776        47.4778 
 175   0.0000       1.754693        47.7476 
 176   0.0000       1.768616        48.1265 
 177   0.0000       1.771572        48.2069 
 178   0.0000       1.774770        48.2940 
 179   0.0000       1.780568        48.4517 
 180   0.0000       1.787375        48.6369 
 181   0.0000       1.795263        48.8516 
 182   0.0000       1.800674        48.9988 
 183   0.0000       1.810362        49.2625 
 184   0.0000       1.822098        49.5818 
 185   0.0000       1.840703        50.0881 
 186   0.0000       1.857106        50.5344 
 187   0.0000       1.859919        50.6110 
 188   0.0000       1.872795        50.9613 
 189   0.0000       1.879431        51.1419 
 190   0.0000       1.887973        51.3744 
 191   0.0000       1.902550        51.7710 
 192   0.0000       1.909517        51.9606 
 193   0.0000       1.936454        52.6936 
 194   0.0000       1.959011        53.3074 
 195   0.0000       1.964947        53.4689 
 196   0.0000       1.976235        53.7761 
 197   0.0000       1.997268        54.3484 
 198   0.0000       2.009636        54.6850 
 199   0.0000       2.045806        55.6692 
 200   0.0000       2.060636        56.0727 
 201   0.0000       2.070828        56.3501 
 202   0.0000       2.085846        56.7588 
 203   0.0000       2.100011        57.1442 
 204   0.0000       2.135262        58.1034 
 205   0.0000       2.171773        59.0970 
 206   0.0000       2.184577        59.4454 
 207   0.0000       2.189685        59.5844 
 208   0.0000       2.215522        60.2874 
 209   0.0000       2.221614        60.4532 
 210   0.0000       2.247614        61.1607 
 211   0.0000       2.261271        61.5323 
 212   0.0000       2.268833        61.7381 
 213   0.0000       2.274882        61.9027 
 214   0.0000       2.283833        62.1463 
 215   0.0000       2.303006        62.6680 
 216   0.0000       2.305043        62.7234 
 217   0.0000       2.318700        63.0950 
 218   0.0000       2.331232        63.4360 
 219   0.0000       2.338737        63.6403 
 220   0.0000       2.349724        63.9392 
 221   0.0000       2.361321        64.2548 
 222   0.0000       2.364971        64.3541 
 223   0.0000       2.374356        64.6095 
 224   0.0000       2.386722        64.9460 
 225   0.0000       2.431465        66.1635 
 226   0.0000       2.433568        66.2207 
 227   0.0000       2.470875        67.2359 
 228   0.0000       2.487001        67.6747 
 229   0.0000       2.503521        68.1243 
 230   0.0000       2.519767        68.5663 
 231   0.0000       2.538372        69.0726 
 232   0.0000       2.555634        69.5423 
 233   0.0000       2.569608        69.9226 
 234   0.0000       2.608018        70.9678 
 235   0.0000       2.624146        71.4066 
 236   0.0000       2.642562        71.9078 
 237   0.0000       2.658296        72.3359 
 238   0.0000       2.694072        73.3094 
 239   0.0000       2.717127        73.9368 
 240   0.0000       2.724606        74.1403 
 241   0.0000       2.740250        74.5660 
 242   0.0000       2.765043        75.2406 
 243   0.0000       2.784160        75.7608 
 244   0.0000       2.806783        76.3764 
 245   0.0000       2.811759        76.5119 
 246   0.0000       2.853372        77.6442 
 247   0.0000       2.881844        78.4190 
 248   0.0000       2.906744        79.0965 
 249   0.0000       2.928862        79.6984 
 250   0.0000       2.975911        80.9787 
 251   0.0000       2.988584        81.3235 
 252   0.0000       2.996137        81.5290 
 253   0.0000       3.061554        83.3091 
 254   0.0000       3.077296        83.7375 
 255   0.0000       3.103247        84.4436 
 256   0.0000       3.129695        85.1633 
 257   0.0000       3.151487        85.7563 
 258   0.0000       3.170553        86.2751 
 259   0.0000       3.176819        86.4456 
 260   0.0000       3.315127        90.2092 
 261   0.0000       3.326846        90.5281 
 262   0.0000       3.364351        91.5486 
 263   0.0000       3.400610        92.5353 
 264   0.0000       3.455936        94.0408 
 265   0.0000       3.516165        95.6797 
 266   0.0000       3.529204        96.0345 
 267   0.0000       3.558889        96.8423 

                    ********************************
                    * MULLIKEN POPULATION ANALYSIS *
                    ********************************

-----------------------
MULLIKEN ATOMIC CHARGES
-----------------------
   0 F :   -0.300780
   1 F :   -0.303982
   2 F :   -0.303191
   3 F :   -0.303191
   4 F :   -0.299237
   5 O :   -0.503292
   6 O :   -0.506563
   7 N :   -0.622206
   8 C :   -0.249375
   9 C :   -0.003375
  10 C :   -0.064360
  11 C :    0.332536
  12 C :    0.336316
  13 C :    0.284347
  14 C :    0.284954
  15 C :    0.578523
  16 C :    0.291285
  17 H :    0.143249
  18 H :    0.145805
  19 H :    0.151756
  20 H :    0.271721
  21 H :    0.264249
  22 H :    0.374813
Sum of atomic charges:   -0.0000000

--------------------------------
MULLIKEN REDUCED ORBITAL CHARGES
--------------------------------
  0 F s       :     3.974419  s :     3.974419
      pz      :     1.901051  p :     5.308552
      px      :     1.886878
      py      :     1.520624
      dz2     :     0.002079  d :     0.017809
      dxz     :     0.000443
      dyz     :     0.004660
      dx2y2   :     0.005796
      dxy     :     0.004831

  1 F s       :     3.977399  s :     3.977399
      pz      :     1.871240  p :     5.308688
      px      :     1.728441
      py      :     1.709008
      dz2     :     0.002309  d :     0.017895
      dxz     :     0.002716
      dyz     :     0.003094
      dx2y2   :     0.004026
      dxy     :     0.005750

  2 F s       :     3.973211  s :     3.973211
      pz      :     1.904931  p :     5.312171
      px      :     1.890230
      py      :     1.517010
      dz2     :     0.002130  d :     0.017810
      dxz     :     0.000419
      dyz     :     0.004626
      dx2y2   :     0.005809
      dxy     :     0.004827

  3 F s       :     3.973225  s :     3.973225
      pz      :     1.873261  p :     5.312155
      px      :     1.732188
      py      :     1.706706
      dz2     :     0.002346  d :     0.017811
      dxz     :     0.002682
      dyz     :     0.003035
      dx2y2   :     0.003978
      dxy     :     0.005770

  4 F s       :     3.974265  s :     3.974265
      pz      :     1.873444  p :     5.307092
      px      :     1.544181
      py      :     1.889467
      dz2     :     0.002351  d :     0.017880
      dxz     :     0.004973
      dyz     :     0.000761
      dx2y2   :     0.005331
      dxy     :     0.004465

  5 O s       :     3.827821  s :     3.827821
      pz      :     1.571349  p :     4.654481
      px      :     1.675583
      py      :     1.407548
      dz2     :     0.005110  d :     0.020991
      dxz     :     0.005255
      dyz     :     0.001895
      dx2y2   :     0.003623
      dxy     :     0.005106

  6 O s       :     3.849075  s :     3.849075
      pz      :     1.559397  p :     4.631757
      px      :     1.404433
      py      :     1.667926
      dz2     :     0.004103  d :     0.025731
      dxz     :     0.005925
      dyz     :     0.003037
      dx2y2   :     0.006868
      dxy     :     0.005798

  7 N s       :     3.591910  s :     3.591910
      pz      :     1.482048  p :     4.001673
      px      :     1.379495
      py      :     1.140131
      dz2     :     0.007887  d :     0.028623
      dxz     :     0.003991
      dyz     :     0.004220
      dx2y2   :     0.005320
      dxy     :     0.007205

  8 C s       :     3.248241  s :     3.248241
      pz      :     0.974949  p :     2.963929
      px      :     0.900651
      py      :     1.088329
      dz2     :     0.005298  d :     0.037206
      dxz     :     0.009340
      dyz     :     0.008817
      dx2y2   :     0.009045
      dxy     :     0.004706

  9 C s       :     3.192534  s :     3.192534
      pz      :     0.990543  p :     2.754023
      px      :     0.881451
      py      :     0.882028
      dz2     :     0.009708  d :     0.056818
      dxz     :     0.013994
      dyz     :     0.008374
      dx2y2   :     0.011978
      dxy     :     0.012765

 10 C s       :     3.148901  s :     3.148901
      pz      :     1.024297  p :     2.875337
      px      :     0.926768
      py      :     0.924272
      dz2     :     0.004205  d :     0.040122
      dxz     :     0.006011
      dyz     :     0.007777
      dx2y2   :     0.010199
      dxy     :     0.011929

 11 C s       :     3.083929  s :     3.083929
      pz      :     1.029062  p :     2.508585
      px      :     0.891855
      py      :     0.587668
      dz2     :     0.006548  d :     0.074951
      dxz     :     0.007625
      dyz     :     0.015246
      dx2y2   :     0.024660
      dxy     :     0.020872

 12 C s       :     3.083200  s :     3.083200
      pz      :     1.002630  p :     2.505544
      px      :     0.744177
      py      :     0.758737
      dz2     :     0.007035  d :     0.074940
      dxz     :     0.010905
      dyz     :     0.012716
      dx2y2   :     0.021812
      dxy     :     0.022472

 13 C s       :     3.083706  s :     3.083706
      pz      :     1.058495  p :     2.558530
      px      :     0.912296
      py      :     0.587739
      dz2     :     0.006587  d :     0.073417
      dxz     :     0.007445
      dyz     :     0.015618
      dx2y2   :     0.021652
      dxy     :     0.022115

 14 C s       :     3.082651  s :     3.082651
      pz      :     1.033096  p :     2.558974
      px      :     0.777806
      py      :     0.748072
      dz2     :     0.007149  d :     0.073420
      dxz     :     0.011047
      dyz     :     0.012680
      dx2y2   :     0.021292
      dxy     :     0.021253

 15 C s       :     2.988533  s :     2.988533
      pz      :     0.716135  p :     2.313320
      px      :     0.740875
      py      :     0.856310
      dz2     :     0.023765  d :     0.119624
      dxz     :     0.025744
      dyz     :     0.016989
      dx2y2   :     0.023777
      dxy     :     0.029350

 16 C s       :     3.079815  s :     3.079815
      pz      :     1.030878  p :     2.555623
      px      :     0.621154
      py      :     0.903591
      dz2     :     0.007165  d :     0.073277
      dxz     :     0.014359
      dyz     :     0.009529
      dx2y2   :     0.020933
      dxy     :     0.021291

 17 H s       :     0.845063  s :     0.845063
      pz      :     0.004846  p :     0.011688
      px      :     0.002579
      py      :     0.004263

 18 H s       :     0.842432  s :     0.842432
      pz      :     0.003272  p :     0.011763
      px      :     0.002090
      py      :     0.006400

 19 H s       :     0.837244  s :     0.837244
      pz      :     0.005714  p :     0.011000
      px      :     0.002685
      py      :     0.002601

 20 H s       :     0.704798  s :     0.704798
      pz      :     0.006058  p :     0.023482
      px      :     0.005585
      py      :     0.011838

 21 H s       :     0.712195  s :     0.712195
      pz      :     0.010975  p :     0.023556
      px      :     0.007399
      py      :     0.005182

 22 H s       :     0.588159  s :     0.588159
      pz      :     0.007776  p :     0.037028
      px      :     0.008879
      py      :     0.020374


------------------------
MULLIKEN OVERLAP CHARGES
------------------------
B(  0-F , 10-C ) :  -0.1174 B(  0-F , 11-C ) :   0.6105 B(  0-F , 14-C ) :  -0.0854 
B(  1-F , 10-C ) :  -0.1144 B(  1-F , 12-C ) :   0.5831 B(  1-F , 13-C ) :  -0.0818 
B(  2-F , 12-C ) :  -0.0757 B(  2-F , 13-C ) :   0.5548 B(  2-F , 16-C ) :  -0.0753 
B(  3-F , 11-C ) :  -0.0749 B(  3-F , 14-C ) :   0.5533 B(  3-F , 16-C ) :  -0.0750 
B(  4-F , 13-C ) :  -0.0785 B(  4-F , 14-C ) :  -0.0789 B(  4-F , 16-C ) :   0.5720 
B(  5-O ,  6-O ) :  -0.1573 B(  5-O ,  9-C ) :  -0.1550 B(  5-O , 15-C ) :   0.5969 
B(  5-O , 22-H ) :   0.5617 B(  6-O ,  9-C ) :  -0.1550 B(  6-O , 15-C ) :   1.2182 
B(  7-N ,  8-C ) :  -0.1370 B(  7-N ,  9-C ) :   0.6505 B(  7-N , 15-C ) :  -0.0918 
B(  7-N , 19-H ) :  -0.0739 B(  7-N , 20-H ) :   0.6973 B(  7-N , 21-H ) :   0.6879 
B(  8-C ,  9-C ) :   0.6942 B(  8-C , 10-C ) :   0.5196 B(  8-C , 11-C ) :  -0.0869 
B(  8-C , 12-C ) :  -0.0800 B(  8-C , 15-C ) :  -0.0570 B(  8-C , 17-H ) :   0.7288 
B(  8-C , 18-H ) :   0.7617 B(  8-C , 19-H ) :  -0.0871 B(  9-C , 10-C ) :  -0.0567 
B(  9-C , 15-C ) :   0.6162 B(  9-C , 17-H ) :  -0.0668 B(  9-C , 18-H ) :  -0.0622 
B(  9-C , 19-H ) :   0.7600 B(  9-C , 20-H ) :  -0.0712 B(  9-C , 21-H ) :  -0.0791 
B( 10-C , 11-C ) :   0.7416 B( 10-C , 12-C ) :   0.7323 B( 10-C , 13-C ) :  -0.1006 
B( 10-C , 14-C ) :  -0.1085 B( 10-C , 17-H ) :  -0.0579 B( 10-C , 18-H ) :  -0.0689 
B( 11-C , 14-C ) :   0.6548 B( 11-C , 16-C ) :  -0.1002 B( 12-C , 13-C ) :   0.6554 
B( 12-C , 16-C ) :  -0.1019 B( 13-C , 14-C ) :  -0.0753 B( 13-C , 16-C ) :   0.6316 
B( 14-C , 16-C ) :   0.6353 B( 15-C , 19-H ) :  -0.0647 B( 17-H , 18-H ) :  -0.0559 
B( 20-H , 21-H ) :  -0.0595 


                     *******************************
                     * LOEWDIN POPULATION ANALYSIS *
                     *******************************

----------------------
LOEWDIN ATOMIC CHARGES
----------------------
   0 F :   -0.079069
   1 F :   -0.078556
   2 F :   -0.081264
   3 F :   -0.081026
   4 F :   -0.076994
   5 O :   -0.162696
   6 O :   -0.291634
   7 N :   -0.276250
   8 C :   -0.112187
   9 C :   -0.031720
  10 C :   -0.063050
  11 C :    0.092158
  12 C :    0.088112
  13 C :    0.065122
  14 C :    0.065297
  15 C :    0.170851
  16 C :    0.070511
  17 H :    0.093265
  18 H :    0.095923
  19 H :    0.096107
  20 H :    0.141451
  21 H :    0.136580
  22 H :    0.219071

-------------------------------
[...]
12 C  dyz             0.0       1.3       0.1       0.0
12 C  dx2y2           0.2       0.0       0.1       0.2
12 C  dxy             0.0       9.7       0.1       0.1
13 C  s               0.0       0.3       0.0       0.0
13 C  py              0.0       0.4       0.0       0.0
13 C  dz2             0.0       0.3       0.0       0.0
13 C  dxz             0.0       1.1       0.0       0.0
13 C  dx2y2           0.0       8.4       0.2       0.1
13 C  dxy             0.1       1.2       0.2       0.1
14 C  s               0.0       0.2       0.0       0.0
14 C  px              0.0       0.2       0.1       0.0
14 C  py              0.0       0.2       0.0       0.0
14 C  dxz             0.0       0.4       0.0       0.0
14 C  dyz             0.0       1.2       0.1       0.1
14 C  dx2y2           0.2       0.0       0.0       0.0
14 C  dxy             0.0       8.8       0.5       0.2
15 C  s               0.3       0.0       0.0       0.1
15 C  pz              0.2       0.0       0.0       0.0
15 C  px              0.2       0.0       0.0       0.0
15 C  py              0.1       0.0       0.0       0.2
15 C  dz2             0.3       0.0       0.0       0.7
15 C  dxz             0.0       0.1       0.1       0.3
15 C  dyz             0.3       0.1       0.0       0.1
15 C  dx2y2           0.1       0.1       0.0       0.7
15 C  dxy             1.2       0.0       0.4       0.1
16 C  s               0.0       0.2       0.0       0.0
16 C  px              0.0       0.3       0.0       0.0
16 C  dxz             0.0       0.7       0.0       0.0
16 C  dyz             0.0       1.0       0.1       0.0
16 C  dx2y2           0.0       6.4       0.1       0.0
16 C  dxy             0.1       2.8       0.3       0.2
17 H  s               0.9       0.0       4.0       1.0
17 H  pz              2.1       0.0       8.2       2.8
17 H  px              0.3       0.0       2.1       0.1
17 H  py              1.2       0.0       4.1       1.1
18 H  s               0.4       1.3       3.5       0.4
18 H  pz              0.2       0.9       1.8       0.2
18 H  px              0.0       0.0       0.1       0.1
18 H  py              1.3       4.1      11.0       1.0
19 H  s               0.1       0.0       0.0       4.9
19 H  pz              0.1       0.1       0.0      10.9
19 H  px              0.0       0.0       0.4       2.9
19 H  py              0.0       0.1       0.0       5.4
20 H  s               0.3       0.0       3.0       2.6
20 H  pz              0.1       0.0       1.6       1.0
20 H  px              0.2       0.0       0.3       0.0
20 H  py              0.8       0.1       6.2       4.8
21 H  s               0.2       0.0       2.5       3.4
21 H  pz              0.3       0.0       3.6       4.3
21 H  px              0.1       0.0       1.0       2.6
21 H  py              0.0       0.0       1.8       1.3
22 H  s              14.1       0.1       0.4       1.4
22 H  pz              1.3       0.0       0.0       0.3
22 H  px              1.4       0.0       0.1       0.0
22 H  py             32.9       0.2       0.9       2.5


                      *****************************
                      * MAYER POPULATION ANALYSIS *
                      *****************************

  NA   - Mulliken gross atomic population
  ZA   - Total nuclear charge
  QA   - Mulliken gross atomic charge
  VA   - Mayer's total valence
  BVA  - Mayer's bonded valence
  FA   - Mayer's free valence

  ATOM       NA         ZA         QA         VA         BVA        FA
  0 F      9.3079     9.0000    -0.3079     1.0581     1.0581     0.0000
  1 F      9.3121     9.0000    -0.3121     1.0515     1.0515     0.0000
  2 F      9.3016     9.0000    -0.3016     1.0572     1.0572    -0.0000
  3 F      9.3018     9.0000    -0.3018     1.0567     1.0567     0.0000
  4 F      9.2985     9.0000    -0.2985     1.0618     1.0618     0.0000
  5 O      8.4863     8.0000    -0.4863     2.0396     2.0396     0.0000
  6 O      8.5080     8.0000    -0.5080     2.0287     2.0287    -0.0000
  7 N      7.6168     7.0000    -0.6168     2.8547     2.8547     0.0000
  8 C      6.2498     6.0000    -0.2498     3.8507     3.8507     0.0000
  9 C      6.0045     6.0000    -0.0045     3.8571     3.8571    -0.0000
 10 C      6.0445     6.0000    -0.0445     3.8018     3.8018     0.0000
 11 C      5.6769     6.0000     0.3231     3.7481     3.7481    -0.0000
 12 C      5.6713     6.0000     0.3287     3.7382     3.7382     0.0000
 13 C      5.7142     6.0000     0.2858     3.6898     3.6898     0.0000
 14 C      5.7135     6.0000     0.2865     3.6850     3.6850     0.0000
 15 C      5.4351     6.0000     0.5649     3.9559     3.9559    -0.0000
 16 C      5.7073     6.0000     0.2927     3.6959     3.6959     0.0000
 17 H      0.8561     1.0000     0.1439     0.9569     0.9569     0.0000
 18 H      0.8504     1.0000     0.1496     0.9549     0.9549    -0.0000
 19 H      0.8544     1.0000     0.1456     0.9477     0.9477    -0.0000
 20 H      0.7263     1.0000     0.2737     0.9075     0.9075    -0.0000
 21 H      0.7346     1.0000     0.2654     0.9206     0.9206    -0.0000
 22 H      0.6282     1.0000     0.3718     0.8753     0.8753    -0.0000

  Mayer bond orders larger than 0.100000
B(  0-F , 11-C ) :   0.9256 B(  1-F , 12-C ) :   0.9057 B(  2-F , 13-C ) :   0.9370 
B(  3-F , 14-C ) :   0.9355 B(  4-F , 16-C ) :   0.9345 B(  5-O , 15-C ) :   1.1171 
B(  5-O , 22-H ) :   0.8239 B(  6-O , 15-C ) :   1.8666 B(  7-N ,  9-C ) :   1.0278 
B(  7-N , 20-H ) :   0.8963 B(  7-N , 21-H ) :   0.8901 B(  8-C ,  9-C ) :   0.9518 
B(  8-C , 10-C ) :   0.9618 B(  8-C , 17-H ) :   0.9313 B(  8-C , 18-H ) :   0.9304 
B(  9-C , 15-C ) :   0.9301 B(  9-C , 19-H ) :   0.9274 B( 10-C , 11-C ) :   1.3533 
B( 10-C , 12-C ) :   1.3479 B( 11-C , 14-C ) :   1.2952 B( 12-C , 13-C ) :   1.2991 
B( 13-C , 16-C ) :   1.2937 B( 14-C , 16-C ) :   1.2954 

-------
TIMINGS
-------

Total SCF time: 0 days 0 hours 0 min 44 sec 

Total time                  ....      44.833 sec
Sum of individual times     ....      41.643 sec  ( 92.9%)

SCF preparation             ....       0.564 sec  (  1.3%)
Fock matrix formation       ....      40.568 sec  ( 90.5%)
  Startup                   ....       0.005 sec  (  0.0% of F)
  Split-RI-J                ....       2.888 sec  (  7.1% of F)
  Chain of spheres X        ....      33.945 sec  ( 83.7% of F)
  XC integration            ....       3.920 sec  (  9.7% of F)
    XC Preparation          ....       0.000 sec  (  0.0% of XC)
    Basis function eval.    ....       1.522 sec  ( 38.8% of XC)
    Density eval.           ....       0.945 sec  ( 24.1% of XC)
    XC-Functional eval.     ....       0.209 sec  (  5.3% of XC)
    XC-Potential eval.      ....       1.037 sec  ( 26.5% of XC)
  CPCM terms                ....       2.897 sec  (  7.1% of F)
Diagonalization             ....       0.000 sec  (  0.0%)
Density matrix formation    ....       0.018 sec  (  0.0%)
Total Energy calculation    ....       0.010 sec  (  0.0%)
Population analysis         ....       0.314 sec  (  0.7%)
Orbital Transformation      ....       0.035 sec  (  0.1%)
Orbital Orthonormalization  ....       0.000 sec  (  0.0%)
DIIS solution               ....       0.062 sec  (  0.1%)
  MO trafo                  ....       0.000 sec  (  0.0 % of DIIS)
  Orb grad                  ....       0.000 sec  (  0.0 % of DIIS)
  Energy W gradient         ....       0.000 sec  (  0.0 % of DIIS)
  DIIS error                ....       0.012 sec  ( 19.5 % of DIIS)
  DIIS work                 ....       0.031 sec  ( 49.2 % of DIIS)
  Form Q                    ....       0.000 sec  (  0.0 % of DIIS)
  Form QpQm                 ....       0.000 sec  (  0.0 % of DIIS)
  Exp/Cayley                ....       0.000 sec  (  0.0 % of DIIS)
  Orb update                ....       0.000 sec  (  0.0 % of DIIS)
  Wake-sleep                ....       0.002 sec  (  2.8 % of DIIS)
SOSCF solution              ....       0.071 sec  (  0.2%)
  MO trafo                  ....       0.029 sec  ( 41.3 % of SOSCF)
  Orb grad                  ....       0.002 sec  (  2.3 % of SOSCF)
  Rot update                ....       0.005 sec  (  6.8 % of SOSCF)
  Step                      ....       0.032 sec  ( 44.7 % of SOSCF)
Finished LeanSCF after  45.0 sec

Maximum memory used throughout the entire LEANSCF-calculation: 43.0 MB


-------------------------------------------------------------------------------
                          DFT DISPERSION CORRECTION                            
                                                                               
                              DFTD3 V3.1  Rev 1                                
                          USING Becke-Johnson damping                          
-------------------------------------------------------------------------------
The B3LYP functional is recognized
Active option DFTDOPT                   ...         4   

molecular C6(AA) [au] = 5996.184615 


            DFT-D V3
 parameters
 s6 scaling factor         :     1.0000 
 a1 scaling factor         :     0.3981 
 s8 scaling factor         :     1.9889 
 a2 scaling factor         :     4.4211 
 ad hoc parameters k1-k3   :    16.0000     1.3333    -4.0000 

 Edisp/kcal,au: -28.586156649487  -0.045554935474 
 E6   /kcal   : -13.437964538 
 E8   /kcal   : -15.148192112 
 % E8         :  52.991356262 

-------------------------   ----------------
Dispersion correction           -0.045554935
-------------------------   ----------------


-------------------------   --------------------
FINAL SINGLE POINT ENERGY     -1050.501137950833
-------------------------   --------------------

                                *** OPTIMIZATION RUN DONE ***



           ************************************************************
           *        Program running with 2 parallel MPI-processes     *
           *              working on a common directory               *
           ************************************************************

------------------------------------------------------------------------------
                              ORCA PROPERTY CALCULATIONS
------------------------------------------------------------------------------

GBWName                                 ... /kaggle/working/Phe-F5-1/Phe-F5_InterFrag.gbw
Number of atoms                         ...     23
Number of basis functions               ...    268
Max core memory                         ...   3000 MB

Electric properties:
Dipole moment                           ... YES
Quadrupole moment                       ...  NO
Static polarizability (Dipole/Dipole)   ...  NO
Static polarizability (Dipole/Quad.)    ...  NO
Static polarizability (Quad./Quad.)     ...  NO
Static polarizability (Velocity)        ...  NO
Static hyperpolarizability              ...  NO

Atomic electric properties:
Dipole moment                           ...  NO
Quadrupole moment                       ...  NO
Static polarizability                   ...  NO

Choice of electric origin               ... Center of mass
Position of electric origin             ...     0.126741    -0.085335    -0.062693

General magnetic properties:
Magnetizability                         ...  NO

EPR properties:
g-Tensor (aka g-matrix)                 ...  NO
Zero-Field splitting spin-orbit         ...  NO
Zero-field splitting spin-spin          ...  NO
Hyperfine couplings                     ...  NO (   0 nuclei)
Quadrupole couplings                    ...  NO (   0 nuclei)
Contact density                         ...  NO (   0 nuclei)

NMR properties:
Chemical shifts                         ...  NO (   0 nuclei)
Spin-rotation constants                 ...  NO (   0 nuclei)
Spin-spin couplings                     ...  NO (   0 nuclei,    0 pairs)

Choice of magnetic origin               ... GIAO
Position of magnetic origin             ...     0.000000     0.000000     0.000000

Properties with geometric perturbations:
SCF Hessian                             ...  NO
IR spectrum                             ...  NO
VCD spectrum                            ...  NO
X-ray spectroscopy properties:
SCF XES/XAS/RIXS spectra                ...  NO

SCF SOC stabilization energy            ...  NO
Diagonal Born-Oppenheimer correction    ...  NO

-------------
DIPOLE MOMENT
-------------

Method             : SCF
Type of density    : Electron Density
Multiplicity       :   1
Irrep              :   0
Energy             : -1050.4555830153590250 Eh
Basis              : AO
                                X                 Y                 Z
Electronic contribution:     22.404891822      -5.424963919      -1.316945264
Nuclear contribution   :    -22.146429057       6.058686531       1.769725292
                        -----------------------------------------
Total Dipole Moment    :      0.258462764       0.633722613       0.452780028
                        -----------------------------------------
Magnitude (a.u.)       :      0.820619951
Magnitude (Debye)      :      2.085850151



--------------------
Rotational spectrum 
--------------------
 
Rotational constants in cm-1:             0.024000             0.011279             0.008664 
Rotational constants in MHz :           719.502410           338.129907           259.735041 

Dipole components along the rotational axes: 
x,y,z [a.u.] :     0.208380    -0.605616     0.513053 
x,y,z [Debye]:     0.529661    -1.539354     1.304078 

 

Dipole moment calculation done in   0.0 sec 

Maximum memory used throughout the entire PROP-calculation: 16.1 MB

--------------------------------
SUGGESTED CITATIONS FOR THIS RUN
--------------------------------

Below you find a list of papers that are relevant to this ORCA run
We neither can nor want to force you to cite these papers, but we appreciate if you do
You receive ORCA, which is the product of decades of hard work by many enthusiastic individuals, for free
The only thing we kindly ask in return is that you cite our papers,
We deeply appreciate it, if you show your appreciation for ORCA by not just citing the generic ORCA reference.

Please note that relegating all ORCA citations to the supporting information does *not* help us.
SI sections are not indexed - citations you put there will not count into any citation statistics
But we need these citations in order to attract the funding resources that allow us to do what we are doing

Therefore, if you are a happy ORCA user, please consider citing a few of the papers listed below in the main body of your paper

In addition to the list printed below, the program has created the file /kaggle/working/Phe-F5-1/Phe-F5_InterFrag.bibtex that contains the list in bibtex format
You can import this file easily into all common literature databanks and citation aid programs

It goes without saying that in many instances, there are alternative algorithms to achieve similar
results as the ones you have gotten from ORCA. It is, of course, also the case that in some instances
ORCA just re-implements algorithms worked out by others. We are fully aware of that and we are also
fully appreciative of our colleagues work. Hence this citation list should not be read as indicating
that the listed papers, which are focused on our own work, are the only ones worth citing. It simply
meant to make it easier for users to cite ORCA specific papers. It is not a substitute for doing your
own literature research and citing the relevant literature in a scientifically appropriate manner.

List of essential papers. We consider these as the minimum necessary citations

  1. Neese, F.
     Software update: the ORCA program system, version 6.0
     WIRES Comput. Molec. Sci. 2025 15(1), e70019
     doi.org/10.1002/wcms.70019

List of papers to cite with high priority. The work reported in these papers was absolutely
necessary for this run to complete.
Our perspective: the developers of density functionals and basis sets usually get cited in chemistry papers
Good! But without the algorithms to do something with them, the functionals or basis sets would not do anything.
Hence, in our opinion, the algorithm design and method developments papers are equally worthy of getting cited

  1. Neese, F.
     An improvement of the resolution of the identity approximation for the formation of the Coulomb matrix
     J. Comp. Chem. 2003 24(14), 1740-1747
     doi.org/10.1002/jcc.10318
  2. Neese, F.; Wennmohs, F.; Hansen, A.; Becker, U.
     Efficient, approximate and parallel Hartree-Fock and hybrid DFT calculations. A 'chain-of-spheres' algorithm for the Hartree-Fock exchange
     Chem. Phys. 2009 356(1-3), 98-109
     doi.org/10.1016/j.chemphys.2008.10.036
  3. Grimme, S.; Antony, J.; Ehrlich, S.; Krieg, H.
     A consistent and accurate ab initio parametrization of density functional dispersion correction (DFT-D) for the 94 elements H-Pu
     J. Chem. Phys. 2010 132 , 154104
     doi.org/10.1063/1.3382344
  4. Grimme, S.; Ehrlich, S.; Goerigk, L.
     Effect of the damping function in dispersion corrected density functional theory
     J. Comput. Chem. 2011 32(7), 1456-1465
     doi.org/10.1002/jcc.21759
  5. Garcia-Rates, M.; Neese, F.
     Effect of the Solute Cavity on the Solvation Energy and its Derivatives within the Framework of the Gaussian Charge Scheme
     J. Comput. Chem. 2020 41 , 922-939
     doi.org/10.1002/jcc.26139
  6. Helmich-Paris, B.; de Souza, B.; Neese, F.; Izsák, R.
     An improved chain of spheres for exchange algorithm
     J. Chem. Phys. 2021 155(10), 104109
     doi.org/10.1063/5.0058766
  7. Neese, F.
     The SHARK Integral Generation and Digestion System
     J. Comp. Chem. 2022 44(3), 381
     doi.org/10.1002/jcc.26942

List of suggested additional citations. These are papers that are important in the 'surrounding' of 
of this run, or papers that preceded the highly important papers. If you like your results we are grateful for a citation.

  1. Izsak, R.; Neese, F.
     An overlap fitted chain of spheres exchange method
     J. Chem. Phys. 2011 135 , 144105
     doi.org/10.1063/1.3646921
  2. Izsak, R.; Hansen, A.; Neese, F.
     The resolution of identity and chain of spheres approximations for the LPNO-CCSD singles Fock term
     Molec. Phys. 2012 110 , 2413-2417
     doi.org/10.1080/00268976.2012.687466
  3. Neese, F.
     The ORCA program system
     WIRES Comput. Molec. Sci. 2012 2(1), 73-78
     doi.org/10.1002/wcms.81
  4. Izsak, R.; Neese, F.; Klopper, W.
     Robust fitting techniques in the chain of spheres approximation to the Fock exchange: The role of the complementary space
     J. Chem. Phys. 2013 139 , 
     doi.org/10.1063/1.4819264
  5. Neese, F.
     Software update: the ORCA program system, version 4.0
     WIRES Comput. Molec. Sci. 2018 8(1), 1-6
     doi.org/10.1002/wcms.1327
  6. Neese, F.; Wennmohs, F.; Becker, U.; Riplinger, C.
     The ORCA quantum chemistry program package
     J. Chem. Phys. 2020 152(22), 224108
     doi.org/10.1063/5.0004608
  7. Neese, F.
     Software update: The ORCA program system—Version 5.0
     WIRES Comput. Molec. Sci. 2022 12(1), e1606
     doi.org/10.1002/wcms.1606

List of optional additional citations

  1. Neese, F.
     Approximate second-order SCF convergence for spin unrestricted wavefunctions
     Chem. Phys. Lett. 2000 325(1-3), 93-98
     doi.org/10.1016/s0009-2614(00)00662-x

Timings for individual modules:

Sum of individual times          ...     1159.913 sec (=  19.332 min)
Startup calculation              ...       35.010 sec (=   0.584 min)   3.0 %
SCF iterations                   ...      727.135 sec (=  12.119 min)  62.7 %
Property calculations            ...        0.422 sec (=   0.007 min)   0.0 %
SCF Gradient evaluation          ...      397.252 sec (=   6.621 min)  34.2 %
Geometry relaxation              ...        0.094 sec (=   0.002 min)   0.0 %
                             ****ORCA TERMINATED NORMALLY****
TOTAL RUN TIME: 0 days 0 hours 19 minutes 24 seconds 859 msec
