
                                 *****************
                                 * O   R   C   A *
                                 *****************

                                            #,                                       
                                            ###                                      
                                            ####                                     
                                            #####                                    
                                            ######                                   
                                           ########,                                 
                                     ,,################,,,,,                         
                               ,,#################################,,                 
                          ,,##########################################,,             
                       ,#########################################, ''#####,          
                    ,#############################################,,   '####,        
                  ,##################################################,,,,####,       
                ,###########''''           ''''###############################       
              ,#####''   ,,,,##########,,,,          '''####'''          '####       
            ,##' ,,,,###########################,,,                        '##       
           ' ,,###''''                  '''############,,,                           
         ,,##''                                '''############,,,,        ,,,,,,###''
      ,#''                                            '''#######################'''  
     '                                                          ''''####''''         
             ,#######,   #######,   ,#######,      ##                                
            ,#'     '#,  ##    ##  ,#'     '#,    #''#        ,####,    ,#,          
            ##       ##  ##   ,#'  ##            #'  '#       #'       ,# #          
            ##       ##  #######   ##           ,######,      #####,      #          
            '#,     ,#'  ##    ##  '#,     ,#' ,#      #,     #,   #      #          
             '#######'   ##     ##  '#######'  #'      '#     '####' #    #          



                #########################################################
                #                        -***-                          #
                #          Department of theory and spectroscopy        #
                #                                                       #
                #                      Frank Neese                      #
                #                                                       #
                #     Directorship, Architecture, Infrastructure        #
                #                    SHARK, DRIVERS                     #
                #        Core code/Algorithms in most modules           #
                #                                                       #
                #        Max Planck Institute fuer Kohlenforschung      #
                #                Kaiser Wilhelm Platz 1                 #
                #                 D-45470 Muelheim/Ruhr                 #
                #                      Germany                          #
                #                                                       #
                #                  All rights reserved                  #
                #                        -***-                          #
                #########################################################


                         Program Version 6.1.1  -  RELEASE   -
                                (GIT: $487d211c$)
                          ($2025-11-21 10:33:24 +0100$)
                                                                         
                                  - NO-DMRG VERSION -                    
                                                                         


 With contributions from (in alphabetic order):
[Max-Planck-Institut fuer Kohlenforschung]                               
  Daniel Aravena         : Magnetic Suceptibility                        
  Michael Atanasov       : Ab Initio Ligand Field Theory (pilot matlab implementation)
  Alexander A. Auer      : GIAO ZORA, VPT2 properties, NMR spectrum      
  Ute Becker             : All parallelization in ORCA, NUMFREQ, NUMCALC 
  Giovanni Bistoni       : ED, misc. LED, open-shell LED, HFLD           
  Dmytro Bykov           : pre 5.0 version of the SCF Hessian            
  Marcos Casanova-Páez   : Triplet and SCS-CIS(D). UHF-(DLPNO)-IP/EA/STEOM-CCSD. UHF-CVS-IP/STEOM-CCSD   
  Vijay G. Chilkuri      : MRCI spin determinant printing, contributions to CSF-ICE 
  Pauline Colinet        : FMM embedding                                 
  Dipayan Datta          : RHF DLPNO-CCSD density                        
  Achintya Kumar Dutta   : EOM-CC, STEOM-CC                              
  Nicolas Foglia         : Exact transition moments, OPA infrastructure, MCD improvements    
  Dmitry Ganyushin       : Spin-Orbit,Spin-Spin,Magnetic field MRCI      
  Miquel Garcia-Rates    : C-PCM and meta-GGA Hessian, CCSD/C-PCM, Gaussian charge scheme 
  Tiago L. C. Gouveia    : GS-ROHF, GS-ROCIS                             
  Yang Guo               : DLPNO-NEVPT2, F12-NEVPT2, CIM, IAO-localization        
  Andreas Hansen         : Spin unrestricted coupled pair/coupled cluster methods 
  Ingolf Harden          : AUTO-CI MPn and infrastructure                
  Benjamin Helmich-Paris : MC-RPA, TRAH-(SCF,CASSCF), AVAS, COSX integrals, SCF dyn. polar., MC-PDFT, srDFT 
  Lee Huntington         : MR-EOM, pCC                                   
  Robert Izsak           : Overlap fitted RIJCOSX, COSX-SCS-MP3, EOM     
  Riya Kayal             : Wick's Theorem for AUTO-CI, AUTO-CI UHF-CCSDT 
  Emily Kempfer          : AUTO-CI RHF CISDT and CCSDT, approximate NEVPT4
  Christian Kollmar      : KDIIS, OOCD, Brueckner-CCSD(T), CCSD density, CASPT2, CASPT2-K, improved NEVPT2 
  Axel Koslowski         : Symmetry handling                             
  Simone Kossmann        : meta-GGA functionals, TD-DFT gradient, OOMP2, (MP2 Hessian; deprecated post 5.0) 
  Lucas Lang             : DCDCAS, Hyperfine gauge corrections, ICE-SOC+SSC
  Marvin Lechner         : AUTO-CI (C++ implementation), FIC-MRCC        
  Spencer Leger          : CASSCF response                               
  Dagmar Lenk            : GEPOL surface, SMD, ORCA-2-JSON               
  Dimitrios Liakos       : Extrapolation schemes; Compound Job, Property file
  Dimitrios Manganas     : Further ROCIS development; embedding schemes. LFT, Crystal Embedding 
  Dimitrios Pantazis     : SARC Basis sets                               
  Anastasios Papadopoulos: AUTO-CI, single reference methods and gradients 
  Taras Petrenko         : pre 6.0 DFT Hessian and TD-DFT gradient,  ECA, NRVS 
  Petra Pikulova         : Analytic Raman intensities                    
  Peter Pinski           : DLPNO-MP2, DLPNO-MP2 Gradient                 
  Shashank Vittal Rao    : ES-AILFT, MagRelax                            
  Christoph Reimann      : Effective Core Potentials                     
  Marius Retegan         : Local ZFS, SOC                                
  Christoph Riplinger    : Optimizer, TS searches, QM/MM, DLPNO-CCSD(T), (RO)-DLPNO pert. Triples 
  Michael Roemelt        : Original ROCIS implementation, recursive CI coupling coefficients
  Masaaki Saitow         : Open-shell DLPNO-CCSD energy and density      
  Barbara Sandhoefer     : DKH picture change effects                    
  Yorick L. A. Schmerwitz: GMF and freeze-and-release deltaSCF, NEB S-IDPP initial path                    
  Kantharuban Sivalingam : CASSCF convergence/infrastructure, NEVPT2, NEVPT3, NEVPT4(SD), FIC-MRCI and CEPA variants
  Bernardo de Souza      : ESD, SOC TD-DFT                               
  Georgi L. Stoychev     : AutoAux, RI-MP2 NMR, DLPNO-MP2 response, X2C  
  Van Anh Tran           : RI-MP2 g-tensors                              
  Willem Van den Heuvel  : Paramagnetic NMR                              
  Zikuan Wang            : NOTCH, Electric field optimization            
  Frank Wennmohs         : Technical directorship and infrastructure     
  Hang Xu                : AUTO-CI-Response properties                   
                                                                         
[FACCTs GmbH]                                                            
  Markus Bursch, Nicolas Foglia, Miquel Garcia-Rates, Ingolf Harden, Hagen Neugebauer, Anastasios Papadopoulos, 
  Christoph Riplinger, Bernardo de Souza, Georgi L. Stoychev                                                    
                                                                 
  APM, various basis sets, CI-OPT, improved COSX, DLPNO-Multilevel,           
  DOCKER, DRACO, updates on ESD, Fragmentator, GOAT, IRC, LR-CPCM, L-BFGS, MBIS, meta-GGA TD-DFT gradient, ML-optimized integration grids, 
  MM, NACMEs, nearIR, NEB, NEB-TS, NL-DFT gradient (VV10), 2- and 3-layer-ONIOM, interface openCOSMO-RS, QMMM,   
  Crystal-QMMM, RESP, rigid body optimization, SF, symmetry and pop. for TD-DFT, various functionals, SOLVATOR                                   
                                                                         
[Other institutions]                                                     
  V. Asgeirsson          : NEB                                           
  Christoph Bannwarth    : sTDA-DFT, sTD-DFT, PBEh-3c, B97-3c, D3        
  Giovanni Bistoni       : ETS/NOCV, ADLD/ADEX, COVALED                  
  Martin Brehm           : Molecular dynamics                            
  Ronald Cardenas        : ETS/NOCV                                      
  Martina Colucci        : COVALED                                       
  Sebastian Ehlert       : rSCAN, r2SCAN, r2SCAN-3c, D4, dhf basis sets  
  Marvin Friede          : D4 for Fr, Ra, Ac-Lr                          
  Lars Goerigk           : TD-DFT with DH, B97 family of functionals     
  Stefan Grimme          : VdW corrections, initial TS optimization, DFT functionals, gCP, sTDA/sTD-DF 
  Waldemar Hujo          : DFT-NL                                        
  H. Jonsson             : NEB                                           
  Holger Kruse           : gCP                                           
  Marcel Mueller         : wB97X-3c, vDZP basis set                      
  Hagen Neugebauer       : wr2SCAN, Native XTB                           
  Gianluca Regni         : ADLD/ADEX                                     
  Tobias Risthaus        : pre 6.0 range-separated hybrid DFT and stability analysis
  Lukas Wittmann         : regularized MP2, r2SCAN double-hybrids, wr2SCAN        
                                                                         
We gratefully acknowledge several colleagues who have allowed us to      
interface, adapt or use parts of their codes:                            
  Ed Valeev, F. Pavosevic, A. Kumar             : LibInt (2-el integral package), F12 methods 
  Garnet Chan, S. Sharma, J. Yang, R. Olivares  : DMRG                   
  Ulf Ekstrom                                   : XCFun DFT Library      
  Mihaly Kallay                                 : mrcc  (arbitrary order and MRCC methods)
  Frank Weinhold                                : gennbo (NPA and NBO analysis)           
  Simon Mueller                                 : openCOSMO-RS                            
  Christopher J. Cramer and Donald G. Truhlar   : smd solvation model                     
  S Lehtola, MJT Oliveira, MAL Marques          : LibXC Library                           
  Liviu Ungur et al                             : ANISO software                          


 Your calculation uses the libint2 library for the computation of 2-el integrals
 For citations please refer to: http://libint.valeyev.net

 Your ORCA version has been built with support for libXC version: 7.0.0
 For citations please refer to: https://libxc.gitlab.io

 This ORCA versions uses:
   CBLAS   interface :  Fast vector & matrix operations
   LAPACKE interface :  Fast linear algebra routines
   SCALAPACK package :  Parallel linear algebra routines
   Shared memory     :  Shared parallel matrices
   BLAS/LAPACK       :  OpenBLAS 0.3.29  USE64BITINT DYNAMIC_ARCH NO_AFFINITY SkylakeX SINGLE_THREADED
        Core in use  :  SkylakeX
   Copyright (c) 2011-2014, The OpenBLAS Project


  ***********************************
  * Starting time: Tue Mar 24 17:45:14 2026
  * Host name:     e5345e16a5d6
  * Process ID:    662
  * Working dir.:  /kaggle/working
  ***********************************

NOTE: MaxCore=3000 MB was set to SCF,MP2,MDCI,CIPSI,MRCI,RASCI and CIS
      => If you want to overwrite this, your respective input block should be placed after the MaxCore statement
Your calculation utilizes the atom-pairwise dispersion correction
with the Becke-Johnson damping scheme (D3BJ)


Warning: RI is on but no J-basis has been assigned. Assigning Def2/J (nothing to worry about!)
================================================================================

----- Orbital basis set information -----
Your calculation utilizes the basis: 6-31G(d,p)
   H-He, Li-Ne : W. J. Hehre, R. Ditchfield and J.A. Pople, J. Chem. Phys. 56, 2257 (1972).
                 Note: He and Ne are unpublished basis sets taken from the Gaussian program.
                 Note: Li and B from J. D. Dill and J. A. Pople, J. Chem. Phys. 62, 2921 (1975).
   Na - Ar     : M. M. Francl, W. J. Pietro, W. J. Hehre, J. S. Binkley, M. S. Gordon, 
                 D. J. DeFrees and J. A. Pople, J. Chem. Phys. 77, 3654 (1982).
   K - Zn      : V. A. Rassolov, J. A. Pople, M. A. Ratner, and T. L. Windus, J. Chem. Phys. 109, 1223 (1998).

----- AuxJ basis set information -----
Your calculation utilizes the auxiliary basis: def2/J
   H-Rn: F. Weigend, Phys. Chem. Chem. Phys. 8, 1057 (2006).
   Fr-Lr: K. Eichkorn, F. Weigend, O. Treutler, R. Ahlrichs; Theor. Chem. Acc. 97, 119 (1997).

================================================================================
                                        WARNINGS
                       Please study these warnings very carefully!
================================================================================


================================================================================
                                       INPUT FILE
================================================================================
NAME = /kaggle/working/Phe-F5-2/Phe-F5_InterFrag.inp
|  1> 
|  2> !RKS B3LYP 6-31G(d,p) TightSCF D3BJ # def2-TZVPP
|  3> 
|  4> %pal nprocs 2 end
|  5> %maxcore 3000
|  6> 
|  7> %elprop
|  8>   Polar 1      # polarizability via CP-SCF
|  9> end
| 10> 
| 11> %output
| 12>   PrintLevel Normal
| 13>   Print[ P_OrbEn ] 2
| 14> end
| 15> 
| 16> *xyz 0 1
| 17>   F      0.612875    2.609773   -0.039768
| 18>   F     -0.608626   -1.810621    1.126913
| 19>   F      1.841501   -2.685929    0.370680
| 20>   F      3.056550    1.731062   -0.805799
| 21>   F      3.683159   -0.919747   -0.603971
| 22>   O     -1.863192   -0.832654   -1.631956
| 23>   O     -3.558682   -1.207460   -0.192582
| 24>   N     -3.743673    1.539463    0.213142
| 25>   C     -1.429519    0.915758    0.993188
| 26>   C     -2.464303    0.952586   -0.172292
| 27>   C     -0.063813    0.429633    0.591118
| 28>   C      0.896728    1.299457    0.077801
| 29>   C      0.288971   -0.916359    0.669308
| 30>   C      1.538092   -1.383038    0.278429
| 31>   C      2.155561    0.864018   -0.321390
| 32>   C     -2.711153   -0.463349   -0.657088
| 33>   C      2.476551   -0.485291   -0.219574
| 34>   H     -1.828996    0.285232    1.792148
| 35>   H     -1.350109    1.936573    1.375152
| 36>   H     -2.030968    1.529853   -0.992776
| 37>   H     -3.554722    2.437558    0.654805
| 38>   H     -4.149144    0.949935    0.939445
| 39>   H     -2.031788   -1.769852   -1.843933
| 40> 
| 41> *
| 42> 
| 43>                          ****END OF INPUT****
================================================================================

                       ****************************
                       * Single Point Calculation *
                       ****************************

---------------------------------
CARTESIAN COORDINATES (ANGSTROEM)
---------------------------------
  F      0.612875    2.609773   -0.039768
  F     -0.608626   -1.810621    1.126913
  F      1.841501   -2.685929    0.370680
  F      3.056550    1.731062   -0.805799
  F      3.683159   -0.919747   -0.603971
  O     -1.863192   -0.832654   -1.631956
  O     -3.558682   -1.207460   -0.192582
  N     -3.743673    1.539463    0.213142
  C     -1.429519    0.915758    0.993188
  C     -2.464303    0.952586   -0.172292
  C     -0.063813    0.429633    0.591118
  C      0.896728    1.299457    0.077801
  C      0.288971   -0.916359    0.669308
  C      1.538092   -1.383038    0.278429
  C      2.155561    0.864018   -0.321390
  C     -2.711153   -0.463349   -0.657088
  C      2.476551   -0.485291   -0.219574
  H     -1.828996    0.285232    1.792148
  H     -1.350109    1.936573    1.375152
  H     -2.030968    1.529853   -0.992776
  H     -3.554722    2.437558    0.654805
  H     -4.149144    0.949935    0.939445
  H     -2.031788   -1.769852   -1.843933

----------------------------
CARTESIAN COORDINATES (A.U.)
----------------------------
  NO LB      ZA    FRAG     MASS         X           Y           Z
   0 F     9.0000    0    18.998    1.158166    4.931756   -0.075151
   1 F     9.0000    0    18.998   -1.150136   -3.421578    2.129557
   2 F     9.0000    0    18.998    3.479933   -5.075670    0.700484
   3 F     9.0000    0    18.998    5.776042    3.271233   -1.522739
   4 F     9.0000    0    18.998    6.960162   -1.738070   -1.141340
   5 O     8.0000    0    15.999   -3.520923   -1.573488   -3.083950
   6 O     8.0000    0    15.999   -6.724934   -2.281769   -0.363927
   7 N     7.0000    0    14.007   -7.074517    2.909163    0.402780
   8 C     6.0000    0    12.011   -2.701399    1.730532    1.876853
   9 C     6.0000    0    12.011   -4.656858    1.800127   -0.325585
  10 C     6.0000    0    12.011   -0.120589    0.811889    1.117051
  11 C     6.0000    0    12.011    1.694570    2.455618    0.147023
  12 C     6.0000    0    12.011    0.546076   -1.731668    1.264809
  13 C     6.0000    0    12.011    2.906573   -2.613563    0.526155
  14 C     6.0000    0    12.011    4.073420    1.632757   -0.607339
  15 C     6.0000    0    12.011   -5.123337   -0.875603   -1.241716
  16 C     6.0000    0    12.011    4.680003   -0.917067   -0.414935
  17 H     1.0000    0     1.008   -3.456302    0.539010    3.386669
  18 H     1.0000    0     1.008   -2.551336    3.659593    2.598661
  19 H     1.0000    0     1.008   -3.837973    2.891003   -1.876075
  20 H     1.0000    0     1.008   -6.717451    4.606317    1.237402
  21 H     1.0000    0     1.008   -7.840746    1.795117    1.775294
  22 H     1.0000    0     1.008   -3.839523   -3.344536   -3.484528

--------------------------------
INTERNAL COORDINATES (ANGSTROEM)
--------------------------------
 F      0   0   0     0.000000000000     0.00000000     0.00000000
 F      1   0   0     4.732134017967     0.00000000     0.00000000
 F      2   1   0     2.709460234305    89.97359425     0.00000000
 F      1   2   3     2.707486661113    89.97503045     0.24977872
 F      4   1   2     2.731329664275   120.07516050   359.84123189
 O      2   1   3     3.184605699393    66.49948176   256.51577459
 O      6   2   1     2.255429757189    72.07609318   243.89780150
 N      7   6   2     2.782879731894    88.79564223   101.92387221
 C      8   7   6     2.520473849271    74.91980114   298.25823909
 C      8   7   6     1.459373693879    60.41410509   332.48939975
 C      9   8   7     1.504370525822   146.17701625    67.90754977
 C      1   2   3     1.345854009626    28.77078936   359.29206044
 C      2   1   3     1.347140391748    28.85661945     1.38846672
 C      3   2   1     1.340929612680    60.04623251     0.38059570
 C      4   1   2     1.340969259654    60.08037746   359.54854470
 C      7   6   2     1.219742763946    29.91667185    87.19508049
 C      5   4   1     1.338811388960    59.96776119   359.71383533
 H      9   8   7     1.093380991149    91.91385774   296.44179330
 H      9   8   7     1.092824647243    86.77470333   188.46665158
 H     10   8   7     1.092799343782   109.48084769   132.15789700
 H      8   7   6     1.018500522825   157.11359789   268.51005020
 H      8   7   6     1.019542074872    63.86676250   200.55581536
 H      6   2   1     0.975550588616    87.78235525   162.30356502

---------------------------
INTERNAL COORDINATES (A.U.)
---------------------------
 F      0   0   0     0.000000000000     0.00000000     0.00000000
 F      1   0   0     8.942437322970     0.00000000     0.00000000
 F      2   1   0     5.120137813587    89.97359425     0.00000000
 F      1   2   3     5.116408300749    89.97503045     0.24977872
 F      4   1   2     5.161465046934   120.07516050   359.84123189
 O      2   1   3     6.018032616377    66.49948176   256.51577459
 O      6   2   1     4.262144555383    72.07609318   243.89780150
 N      7   6   2     5.258880556920    88.79564223   101.92387221
 C      8   7   6     4.763005302832    74.91980114   298.25823909
 C      8   7   6     2.757816608480    60.41410509   332.48939975
 C      9   8   7     2.842848297746   146.17701625    67.90754977
 C      1   2   3     2.543295494433    28.77078936   359.29206044
 C      2   1   3     2.545726404346    28.85661945     1.38846672
 C      3   2   1     2.533989732831    60.04623251     0.38059570
 C      4   1   2     2.534064654754    60.08037746   359.54854470
 C      7   6   2     2.304979777690    29.91667185    87.19508049
 C      5   4   1     2.529986870109    59.96776119   359.71383533
 H      9   8   7     2.066190633306    91.91385774   296.44179330
 H      9   8   7     2.065139295688    86.77470333   188.46665158
 H     10   8   7     2.065091479077   109.48084769   132.15789700
 H      8   7   6     1.924687055395   157.11359789   268.51005020
 H      8   7   6     1.926655303518    63.86676250   200.55581536
 H      6   2   1     1.843523442270    87.78235525   162.30356502

---------------------
BASIS SET INFORMATION
---------------------
There are 5 groups of distinct atoms

 Group   1 Type F   : 10s4p1d contracted to 3s2p1d pattern {631/31/1}
 Group   2 Type O   : 10s4p1d contracted to 3s2p1d pattern {631/31/1}
 Group   3 Type N   : 10s4p1d contracted to 3s2p1d pattern {631/31/1}
 Group   4 Type C   : 10s4p1d contracted to 3s2p1d pattern {631/31/1}
 Group   5 Type H   : 4s1p contracted to 2s1p pattern {31/1}

Atom   0F    basis set group =>   1
Atom   1F    basis set group =>   1
Atom   2F    basis set group =>   1
Atom   3F    basis set group =>   1
Atom   4F    basis set group =>   1
Atom   5O    basis set group =>   2
Atom   6O    basis set group =>   2
Atom   7N    basis set group =>   3
Atom   8C    basis set group =>   4
Atom   9C    basis set group =>   4
Atom  10C    basis set group =>   4
Atom  11C    basis set group =>   4
Atom  12C    basis set group =>   4
Atom  13C    basis set group =>   4
Atom  14C    basis set group =>   4
Atom  15C    basis set group =>   4
Atom  16C    basis set group =>   4
Atom  17H    basis set group =>   5
Atom  18H    basis set group =>   5
Atom  19H    basis set group =>   5
Atom  20H    basis set group =>   5
Atom  21H    basis set group =>   5
Atom  22H    basis set group =>   5
---------------------------------
AUXILIARY/J BASIS SET INFORMATION
---------------------------------
There are 5 groups of distinct atoms

 Group   1 Type F   : 12s5p4d2f1g contracted to 6s4p3d1f1g pattern {711111/2111/211/2/1}
 Group   2 Type O   : 12s5p4d2f1g contracted to 6s4p3d1f1g pattern {711111/2111/211/2/1}
 Group   3 Type N   : 12s5p4d2f1g contracted to 6s4p3d1f1g pattern {711111/2111/211/2/1}
 Group   4 Type C   : 12s5p4d2f1g contracted to 6s4p3d1f1g pattern {711111/2111/211/2/1}
 Group   5 Type H   : 5s2p1d contracted to 3s1p1d pattern {311/2/1}

Atom   0F    basis set group =>   1
Atom   1F    basis set group =>   1
Atom   2F    basis set group =>   1
Atom   3F    basis set group =>   1
Atom   4F    basis set group =>   1
Atom   5O    basis set group =>   2
Atom   6O    basis set group =>   2
Atom   7N    basis set group =>   3
Atom   8C    basis set group =>   4
Atom   9C    basis set group =>   4
Atom  10C    basis set group =>   4
Atom  11C    basis set group =>   4
Atom  12C    basis set group =>   4
Atom  13C    basis set group =>   4
Atom  14C    basis set group =>   4
Atom  15C    basis set group =>   4
Atom  16C    basis set group =>   4
Atom  17H    basis set group =>   5
Atom  18H    basis set group =>   5
Atom  19H    basis set group =>   5
Atom  20H    basis set group =>   5
Atom  21H    basis set group =>   5
Atom  22H    basis set group =>   5


           ************************************************************
           *        Program running with 2 parallel MPI-processes     *
           *              working on a common directory               *
           ************************************************************
------------------------------------------------------------------------------
                             ORCA STARTUP CALCULATIONS
                           -- RI-GTO INTEGRALS CHOSEN --
------------------------------------------------------------------------------
------------------------------------------------------------------------------
                   ___                                                        
                  /   \      - P O W E R E D   B Y -                         
                 /     \                                                     
                 |  |  |   _    _      __       _____    __    __             
                 |  |  |  | |  | |    /  \     |  _  \  |  |  /  |          
                  \  \/   | |  | |   /    \    | | | |  |  | /  /          
                 / \  \   | |__| |  /  /\  \   | |_| |  |  |/  /          
                |  |  |   |  __  | /  /__\  \  |    /   |      \           
                |  |  |   | |  | | |   __   |  |    \   |  |\   \          
                \     /   | |  | | |  |  |  |  | |\  \  |  | \   \       
                 \___/    |_|  |_| |__|  |__|  |_| \__\ |__|  \__/        
                                                                              
                      - O R C A' S   B I G   F R I E N D -                    
                                      &                                       
                       - I N T E G R A L  F E E D E R -                       
                                                                              
 v1 FN, 2020, v2 2021, v3 2022-2024                                           
------------------------------------------------------------------------------


----------------------
SHARK INTEGRAL PACKAGE
----------------------

Number of atoms                             ...     23
Number of basis functions                   ...    268
Number of shells                            ...    120
Maximum angular momentum                    ...      2
Integral batch strategy                     ... SHARK/LIBINT Hybrid
RI-J (if used) integral strategy            ... SPLIT-RIJ (Revised 2003 algorithm where possible)
Printlevel                                  ...      1
Contraction scheme used                     ... SEGMENTED contraction
Prescreening option                         ... SCHWARTZ
   Thresh                                   ... 2.500e-11
   Tcut                                     ... 2.500e-12
   Tpresel                                  ... 2.500e-12 
Coulomb Range Separation                    ... NOT USED
Exchange Range Separation                   ... NOT USED
Multipole approximations                    ... NOT USED
Finite Nucleus Model                        ... NOT USED
CABS basis                                  ... NOT available
Auxiliary Coulomb fitting basis             ... AVAILABLE
   # of basis functions in Aux-J            ...    899
   # of shells in Aux-J                     ...    285
   Maximum angular momentum in Aux-J        ...      4
Auxiliary J/K fitting basis                 ... NOT available
Auxiliary Correlation fitting basis         ... NOT available
Auxiliary 'external' fitting basis          ... NOT available

Checking pre-screening integrals            ... done (  0.0 sec) Dimension = 120
   => SHARK Basis and OBASIS are compatible. Storing Pre-screening
Shell pair information
Shell pair cut-off parameter TPreSel        ...   2.5e-12
Total number of shell pairs                 ...      7260
Shell pairs after pre-screening             ...      5754
Total number of primitive shell pairs       ...     41130
Primitive shell pairs kept                  ...     18805
          la=0 lb=0:   1518 shell pairs
          la=1 lb=0:   2039 shell pairs
          la=1 lb=1:    708 shell pairs
          la=2 lb=0:    804 shell pairs
          la=2 lb=1:    562 shell pairs
          la=2 lb=2:    123 shell pairs

Checking whether 4 symmetric matrices of dimension 268 fit in memory
:Max Core in MB      =   3000.00
 MB in use           =     11.42
 MB left             =   2988.58
 MB needed           =      1.10
 Data fit in memory  = YES
Calculating RI/J V-Matrix + Cholesky decomp.... done (  0.0 sec)
Calculating Nuclear repulsion               ... done (  0.0 sec) ENN=   1304.184404531578 Eh

Diagonalization of the overlap matrix:
Smallest eigenvalue                        ... 5.075e-04
Time for diagonalization                   ...    0.009 sec
Threshold for overlap eigenvalues          ... 1.000e-07
Number of eigenvalues below threshold      ... 0
Time for construction of square roots      ...    0.003 sec
Total time needed                          ...    0.013 sec

-------------------
DFT GRID GENERATION
-------------------

General Integration Accuracy     IntAcc      ... 4.388
Radial Grid Type                 RadialGrid  ... OptM3 with GC (2021)
Angular Grid (max. ang.)         AngularGrid ... 4 (Lebedev-302)
Angular grid pruning method      GridPruning ... 4 (adaptive)
Weight generation scheme         WeightScheme... mBecke (2022)
Basis function cutoff            BFCut       ... 1.0000e-11
Integration weight cutoff        WCut        ... 1.0000e-14
Partially contracted basis set               ... off
Rotationally invariant grid construction     ... off
Angular grids for H and He will be reduced by one unit

Total number of grid points                  ...   121594
Total number of batches                      ...     1914
Average number of points per batch           ...       63
Average number of grid points per atom       ...     5287

--------------------
COSX GRID GENERATION
--------------------

GRIDX 1
-------
General Integration Accuracy     IntAcc      ... 3.816
Radial Grid Type                 RadialGrid  ... OptM3 with GC (2021)
Angular Grid (max. ang.)         AngularGrid ... 1 (Lebedev-50)
Angular grid pruning method      GridPruning ... 4 (adaptive)
Weight generation scheme         WeightScheme... mBecke (2022)
Basis function cutoff            BFCut       ... 1.0000e-11
Integration weight cutoff        WCut        ... 1.0000e-14
Partially contracted basis set               ... on
Rotationally invariant grid construction     ... off
Angular grids for H and He will be reduced by one unit

Total number of grid points                  ...    15356
Total number of batches                      ...      133
Average number of points per batch           ...      115
Average number of grid points per atom       ...      668
UseSFitting                                  ... on

GRIDX 2
-------
General Integration Accuracy     IntAcc      ... 4.020
Radial Grid Type                 RadialGrid  ... OptM3 with GC (2021)
Angular Grid (max. ang.)         AngularGrid ... 2 (Lebedev-110)
Angular grid pruning method      GridPruning ... 4 (adaptive)
Weight generation scheme         WeightScheme... mBecke (2022)
Basis function cutoff            BFCut       ... 1.0000e-11
Integration weight cutoff        WCut        ... 1.0000e-14
Partially contracted basis set               ... on
Rotationally invariant grid construction     ... off
Angular grids for H and He will be reduced by one unit

Total number of grid points                  ...    34940
Total number of batches                      ...      285
Average number of points per batch           ...      122
Average number of grid points per atom       ...     1519
UseSFitting                                  ... on

GRIDX 3
-------
General Integration Accuracy     IntAcc      ... 4.338
Radial Grid Type                 RadialGrid  ... OptM3 with GC (2021)
Angular Grid (max. ang.)         AngularGrid ... 3 (Lebedev-194)
Angular grid pruning method      GridPruning ... 4 (adaptive)
Weight generation scheme         WeightScheme... mBecke (2022)
Basis function cutoff            BFCut       ... 1.0000e-11
Integration weight cutoff        WCut        ... 1.0000e-14
Partially contracted basis set               ... on
Rotationally invariant grid construction     ... off
Angular grids for H and He will be reduced by one unit

Total number of grid points                  ...    76966
Total number of batches                      ...      614
Average number of points per batch           ...      125
Average number of grid points per atom       ...     3346
UseSFitting                                  ... on
Grids setup in   2.4 sec
Initializing property integral containers    ... done (  0.0 sec)

SHARK setup successfully completed in   2.6 seconds

Maximum memory used throughout the entire STARTUP-calculation: 41.6 MB


           ************************************************************
           *        Program running with 2 parallel MPI-processes     *
           *              working on a common directory               *
           ************************************************************
-------------------------------------------------------------------------------
                                 ORCA GUESS
                   Start orbitals & Density for SCF / CASSCF
-------------------------------------------------------------------------------

------------
SCF SETTINGS
------------
Hamiltonian:
 Density Functional     Method          .... DFT(GTOs)
 Exchange Functional    Exchange        .... B88
   X-Alpha parameter    XAlpha          ....  0.666667
   Becke's b parameter  XBeta           ....  0.004200
 Correlation Functional Correlation     .... LYP
 LDA part of GGA corr.  LDAOpt          .... VWN-5
 Gradients option       PostSCFGGA      .... off
 Hybrid DFT is turned on
   Fraction HF Exchange ScalHFX         ....  0.200000
   Scaling of DF-GGA-X  ScalDFX         ....  0.720000
   Scaling of DF-GGA-C  ScalDFC         ....  0.810000
   Scaling of DF-LDA-C  ScalLDAC        ....  1.000000
   Perturbative correction              ....  0.000000
   NL short-range parameter             ....  4.800000
 RI-approximation to the Coulomb term is turned on
   Number of AuxJ basis functions       .... 899
   RIJ-COSX (HFX calculated with COS-X)).... on


General Settings:
 Integral files         IntName         .... /kaggle/working/Phe-F5-2/Phe-F5_InterFrag
 Hartree-Fock type      HFTyp           .... RHF
 Total Charge           Charge          ....    0
 Multiplicity           Mult            ....    1
 Number of Electrons    NEL             ....  128
 Basis Dimension        Dim             ....  268
 Nuclear Repulsion      ENuc            ....   1304.1844045316 Eh

Convergence Acceleration:
 AO-DIIS                CNVDIIS         .... on
   Start iteration      DIISMaxIt       ....    12
   Startup error        DIISStart       ....  0.200000
   # of expansion vecs  DIISMaxEq       ....     5
   Bias factor          DIISBfac        ....   1.050
   Max. coefficient     DIISMaxC        ....  10.000
 MO-DIIS                CNVKDIIS        .... off
 Trust-Rad. Augm. Hess. CNVTRAH         .... auto
   Auto Start mean grad. ratio tolernc. ....  1.125000
   Auto Start start iteration           ....    50
   Auto Start num. interpolation iter.  ....    10
   Max. Number of Micro iterations      ....    24
   Max. Number of Macro iterations      .... Maxiter - #DIIS iter
   Number of Davidson start vectors     ....     2
   Converg. threshold    (grad. norm)   ....   1.000e-05
   Grad. Scal. Fac. for Micro threshold ....   0.100
   Minimum threshold for Micro iter.    ....   1.000e-02
   NR start threshold (gradient norm)   ....   1.000e-04
   Initial trust radius                 ....   0.400
   Minimum AH scaling param. (alpha)    ....   1.000
   Maximum AH scaling param. (alpha)    .... 1000.000
   Quad. conv. algorithm                .... NR
   White noise on init. David. guess    .... on
   Maximum white noise                  ....   0.010
   Pseudo random numbers                .... off
   Inactive MOs                         .... canonical
   Orbital update algorithm             .... Taylor
   Preconditioner                       .... Diag
   Full preconditioner red. dimension   ....   250
 SOSCF                 CNVSOSCF           .... on
   Start iteration     SOSCFMaxIt         ....   150
   Startup grad/error  SOSCFStart         ....  0.003300
   Hessian update      SOSCFHessUp        .... L-BFGS
   Autom. constraints  SOSCFAutoConstrain .... off
 Level Shifting         CNVShift        .... on
   Level shift para.    LevelShift      ....    0.2500
   Turn off err/grad.   ShiftErr        ....    0.0010
 Zerner damping         CNVZerner       .... off
 Static damping         CNVDamp         .... on
   Fraction old density DampFac         ....    0.7000
   Max. Damping (<1)    DampMax         ....    0.9800
   Min. Damping (>=0)   DampMin         ....    0.0000
   Turn off err/grad.   DampErr         ....    0.1000

SCF Procedure:
 Maximum # iterations   MaxIter         ....   125
 SCF integral mode      SCFMode         .... Direct
   Integral package                     .... SHARK and LIBINT hybrid scheme
 Reset frequency        DirectResetFreq ....    20
 Integral Threshold     Thresh          ....  2.500e-11 Eh
 Primitive CutOff       TCut            ....  2.500e-12 Eh

Convergence Tolerance:
 Convergence Check Mode ConvCheckMode   .... Total+1el-Energy
 Convergence forced     ConvForced      .... 0
 Energy Change          TolE            ....  1.000e-08 Eh
 1-El. energy change                    ....  1.000e-05 Eh
 Orbital Gradient       TolG            ....  1.000e-05
 Orbital Rotation angle TolX            ....  1.000e-05
 DIIS Error             TolErr          ....  5.000e-07

------------------------------
INITIAL GUESS: MODEL POTENTIAL
------------------------------
Loading Hartree-Fock densities                     ... done
Calculating cut-offs                               ... done
Initializing the effective Hamiltonian             ... done
Setting up the integral package (SHARK)            ... done
Starting the Coulomb interaction                   ... done (   0.2 sec)
Making the grid                                    ... done (   0.3 sec)
Mapping shells                                     ... done
Starting the XC term evaluation                    ... done (   0.2 sec)
  promolecular density results
     # of electrons  =    128.005089525
     EX              =   -121.346961138
     EC              =     -4.614040926
     EX+EC           =   -125.961002064
Transforming the Hamiltonian                       ... done (   0.0 sec)
Diagonalizing the Hamiltonian                      ... done (   0.0 sec)
Back transforming the eigenvectors                 ... done (   0.0 sec)
Now organizing SCF variables                       ... done
                      ------------------
                      INITIAL GUESS DONE (   0.8 sec)
                      ------------------
             **** ENERGY FILE WAS UPDATED (/kaggle/working/Phe-F5-2/Phe-F5_InterFrag.en.tmp) ****
Finished Guess after   1.1 sec
Maximum memory used throughout the entire GUESS-calculation: 17.0 MB


           ************************************************************
           *        Program running with 2 parallel MPI-processes     *
           *              working on a common directory               *
           ************************************************************

-------------------------------------------------------------------------------------------
                                      ORCA LEAN-SCF
                              memory conserving SCF solver
-------------------------------------------------------------------------------------------

----------------------------------------D-I-I-S--------------------------------------------
Iteration    Energy (Eh)           Delta-E    RMSDP     MaxDP     DIISErr   Damp  Time(sec)
-------------------------------------------------------------------------------------------
               ***  Starting incremental Fock matrix formation  ***
    1    -1050.1153696045523702     0.00e+00  3.29e-03  9.28e-02  2.67e-01  0.700   7.5
    2    -1050.2700393003417503    -1.55e-01  2.12e-03  5.16e-02  1.13e-01  0.700   3.6
                               ***Turning on AO-DIIS***
    3    -1050.3268127226695015    -5.68e-02  8.15e-04  1.70e-02  3.79e-02  0.700   3.5
    4    -1050.3624629440980698    -3.57e-02  1.34e-03  2.40e-02  1.64e-02  0.000   3.4
    5    -1050.4419344635123252    -7.95e-02  2.85e-04  4.93e-03  4.85e-03  0.000   3.4
                              *** Initializing SOSCF ***
---------------------------------------S-O-S-C-F--------------------------------------
Iteration    Energy (Eh)           Delta-E    RMSDP     MaxDP     MaxGrad    Time(sec)
--------------------------------------------------------------------------------------
    6    -1050.4422707964902202    -3.36e-04  8.46e-05  1.55e-03  1.56e-03     3.1
               *** Restarting incremental Fock matrix formation ***
    7    -1050.4423338193471409    -6.30e-05  8.92e-05  2.26e-03  6.41e-04     7.5
    8    -1050.4423192997526257     1.45e-05  5.05e-05  1.64e-03  1.60e-03     5.2
    9    -1050.4423410903971217    -2.18e-05  1.62e-05  3.13e-04  1.02e-04     4.9
   10    -1050.4423406934481591     3.97e-07  1.01e-05  2.49e-04  1.40e-04     4.4
   11    -1050.4423413439383239    -6.50e-07  2.36e-06  4.36e-05  1.37e-05     4.0
   12    -1050.4423413435436032     3.95e-10  1.34e-06  2.41e-05  1.38e-05     3.5
                 **** Energy Check signals convergence ****

               *****************************************************
               *                     SUCCESS                       *
               *           SCF CONVERGED AFTER  12 CYCLES          *
               *****************************************************

Recomputing exchange energy using gridx3       ... done (   12.848 sec)
Old exchange energy                            :    -24.457071730 Eh
New exchange energy                            :    -24.457075303 Eh
Exchange energy change after final integration :     -0.000003573 Eh
Total energy after final integration           :  -1050.442344933 Eh
             **** ENERGY FILE WAS UPDATED (/kaggle/working/Phe-F5-2/Phe-F5_InterFrag.en.tmp) ****

----------------
TOTAL SCF ENERGY
----------------

Total Energy       :      -1050.44234493257159 Eh          -28583.98939 eV

Components:
Nuclear Repulsion  :       1304.18440453157814 Eh           35488.66186 eV
Electronic Energy  :      -2354.62674589093604 Eh          -64072.65115 eV
One Electron Energy:      -4040.53101054483932 Eh         -109948.43847 eV
Two Electron Energy:       1685.90426465390328 Eh           45875.78732 eV

Virial components:
Potential Energy   :      -2095.36176182105373 Eh          -57017.69226 eV
Kinetic Energy     :       1044.91941688848215 Eh           28433.70288 eV
Virial Ratio       :          2.00528550618816

DFT components:
N(Alpha)           :       64.000012055530 electrons
N(Beta)            :       64.000012055530 electrons
N(Total)           :      128.000024111060 electrons
E(X)               :      -97.324188005779 Eh       
E(C)               :       -5.411635584713 Eh       
E(XC)              :     -102.735823590492 Eh       

---------------
SCF CONVERGENCE
---------------

  Last Energy change         ...   -3.9472e-10  Tolerance :   1.0000e-08
  Last MAX-Density change    ...    2.4142e-05  Tolerance :   1.0000e-07
  Last RMS-Density change    ...    1.3424e-06  Tolerance :   5.0000e-09
  Last DIIS Error            ...    1.5578e-03  Tolerance :   5.0000e-07
  Last Orbital Gradient      ...    1.3801e-05  Tolerance :   1.0000e-05
  Last Orbital Rotation      ...    2.4271e-05  Tolerance :   1.0000e-05


----------------
ORBITAL ENERGIES
----------------

  NO   OCC          E(Eh)            E(eV) 
   0   2.0000     -24.731965      -672.9910 
   1   2.0000     -24.730643      -672.9550 
   2   2.0000     -24.730090      -672.9400 
   3   2.0000     -24.729128      -672.9138 
   4   2.0000     -24.728688      -672.9018 
   5   2.0000     -19.203384      -522.5506 
   6   2.0000     -19.140895      -520.8502 
   7   2.0000     -14.323919      -389.7737 
   8   2.0000     -10.322006      -280.8761 
   9   2.0000     -10.304207      -280.3917 
  10   2.0000     -10.299981      -280.2767 
  11   2.0000     -10.299602      -280.2664 
  12   2.0000     -10.299342      -280.2593 
  13   2.0000     -10.299139      -280.2538 
  14   2.0000     -10.238239      -278.5966 
  15   2.0000     -10.229984      -278.3720 
  16   2.0000     -10.215256      -277.9712 
  17   2.0000      -1.258804       -34.2538 
  18   2.0000      -1.252662       -34.0867 
  19   2.0000      -1.247498       -33.9462 
  20   2.0000      -1.239225       -33.7210 
  21   2.0000      -1.235508       -33.6199 
  22   2.0000      -1.113382       -30.2967 
  23   2.0000      -1.018540       -27.7159 
  24   2.0000      -0.910806       -24.7843 
  25   2.0000      -0.901115       -24.5206 
  26   2.0000      -0.816852       -22.2277 
  27   2.0000      -0.780593       -21.2410 
  28   2.0000      -0.750619       -20.4254 
  29   2.0000      -0.698733       -19.0135 
  30   2.0000      -0.662750       -18.0343 
  31   2.0000      -0.650449       -17.6996 
  32   2.0000      -0.600016       -16.3273 
  33   2.0000      -0.592764       -16.1299 
  34   2.0000      -0.589614       -16.0442 
  35   2.0000      -0.568303       -15.4643 
  36   2.0000      -0.543321       -14.7845 
  37   2.0000      -0.539041       -14.6681 
  38   2.0000      -0.536132       -14.5889 
  39   2.0000      -0.522891       -14.2286 
  40   2.0000      -0.515809       -14.0359 
  41   2.0000      -0.493502       -13.4289 
  42   2.0000      -0.490345       -13.3430 
  43   2.0000      -0.485852       -13.2207 
  44   2.0000      -0.469138       -12.7659 
  45   2.0000      -0.465620       -12.6702 
  46   2.0000      -0.462732       -12.5916 
  47   2.0000      -0.456883       -12.4324 
  48   2.0000      -0.443188       -12.0598 
  49   2.0000      -0.439554       -11.9609 
  50   2.0000      -0.435185       -11.8420 
  51   2.0000      -0.426333       -11.6011 
  52   2.0000      -0.415979       -11.3194 
  53   2.0000      -0.410303       -11.1649 
  54   2.0000      -0.404112       -10.9964 
  55   2.0000      -0.386058       -10.5052 
  56   2.0000      -0.382517       -10.4088 
  57   2.0000      -0.374538       -10.1917 
  58   2.0000      -0.351831        -9.5738 
  59   2.0000      -0.322747        -8.7824 
  60   2.0000      -0.281219        -7.6523 
  61   2.0000      -0.271908        -7.3990 
  62   2.0000      -0.257354        -7.0030 
  63   2.0000      -0.247194        -6.7265 
  64   0.0000      -0.028602        -0.7783 
  65   0.0000      -0.016483        -0.4485 
  66   0.0000       0.000714         0.0194 
  67   0.0000       0.010464         0.2847 
  68   0.0000       0.071166         1.9365 
  69   0.0000       0.076478         2.0811 
  70   0.0000       0.099761         2.7146 
  71   0.0000       0.120031         3.2662 
  72   0.0000       0.129476         3.5232 
  73   0.0000       0.135562         3.6888 
  74   0.0000       0.152311         4.1446 
  75   0.0000       0.161751         4.4015 
  76   0.0000       0.178997         4.8708 
  77   0.0000       0.204217         5.5570 
  78   0.0000       0.210823         5.7368 
  79   0.0000       0.235548         6.4096 
  80   0.0000       0.243784         6.6337 
  81   0.0000       0.254752         6.9322 
  82   0.0000       0.257092         6.9958 
  83   0.0000       0.312186         8.4950 
  84   0.0000       0.320818         8.7299 
  85   0.0000       0.332408         9.0453 
  86   0.0000       0.365377         9.9424 
  87   0.0000       0.387397        10.5416 
  88   0.0000       0.389881        10.6092 
  89   0.0000       0.450551        12.2601 
  90   0.0000       0.466729        12.7004 
  91   0.0000       0.473384        12.8814 
  92   0.0000       0.477582        12.9957 
  93   0.0000       0.512657        13.9501 
  94   0.0000       0.516761        14.0618 
  95   0.0000       0.525753        14.3065 
  96   0.0000       0.537496        14.6260 
  97   0.0000       0.551825        15.0159 
  98   0.0000       0.555947        15.1281 
  99   0.0000       0.561230        15.2718 
 100   0.0000       0.578754        15.7487 
 101   0.0000       0.587896        15.9975 
 102   0.0000       0.605186        16.4680 
 103   0.0000       0.617436        16.8013 
 104   0.0000       0.625705        17.0263 
 105   0.0000       0.630052        17.1446 
 106   0.0000       0.649001        17.6602 
 107   0.0000       0.664124        18.0717 
 108   0.0000       0.672694        18.3049 
 109   0.0000       0.699218        19.0267 
 110   0.0000       0.702209        19.1081 
 111   0.0000       0.738571        20.0975 
 112   0.0000       0.744552        20.2603 
 113   0.0000       0.763255        20.7692 
 114   0.0000       0.778956        21.1965 
 115   0.0000       0.797333        21.6965 
 116   0.0000       0.815469        22.1900 
 117   0.0000       0.843040        22.9403 
 118   0.0000       0.845080        22.9958 
 119   0.0000       0.855408        23.2768 
 120   0.0000       0.870984        23.7007 
 121   0.0000       0.874380        23.7931 
 122   0.0000       0.884965        24.0811 
 123   0.0000       0.895144        24.3581 
 124   0.0000       0.904707        24.6183 
 125   0.0000       0.927522        25.2392 
 126   0.0000       0.931355        25.3435 
 127   0.0000       0.948994        25.8235 
 128   0.0000       0.982745        26.7418 
 129   0.0000       0.996336        27.1117 
 130   0.0000       1.026591        27.9350 
 131   0.0000       1.033776        28.1305 
 132   0.0000       1.081148        29.4195 
 133   0.0000       1.089011        29.6335 
 134   0.0000       1.099060        29.9069 
 135   0.0000       1.111487        30.2451 
 136   0.0000       1.131728        30.7959 
 137   0.0000       1.138850        30.9897 
 138   0.0000       1.160354        31.5748 
 139   0.0000       1.181232        32.1430 
 140   0.0000       1.198991        32.6262 
 141   0.0000       1.204243        32.7691 
 142   0.0000       1.224367        33.3167 
 143   0.0000       1.234667        33.5970 
 144   0.0000       1.237854        33.6837 
 145   0.0000       1.242568        33.8120 
 146   0.0000       1.246318        33.9140 
 147   0.0000       1.299939        35.3731 
 148   0.0000       1.309355        35.6294 
 149   0.0000       1.317071        35.8393 
 150   0.0000       1.335967        36.3535 
 151   0.0000       1.369114        37.2555 
 152   0.0000       1.369187        37.2575 
 153   0.0000       1.387251        37.7490 
 154   0.0000       1.392496        37.8917 
 155   0.0000       1.402985        38.1772 
 156   0.0000       1.410846        38.3911 
 157   0.0000       1.422959        38.7207 
 158   0.0000       1.429342        38.8944 
 159   0.0000       1.440740        39.2045 
 160   0.0000       1.448604        39.4185 
 161   0.0000       1.464873        39.8612 
 162   0.0000       1.468145        39.9503 
 163   0.0000       1.481157        40.3043 
 164   0.0000       1.516366        41.2624 
 165   0.0000       1.524251        41.4770 
 166   0.0000       1.583191        43.0808 
 167   0.0000       1.623358        44.1738 
 168   0.0000       1.640664        44.6447 
 169   0.0000       1.681308        45.7507 
 170   0.0000       1.688706        45.9520 
 171   0.0000       1.709721        46.5239 
 172   0.0000       1.717229        46.7282 
 173   0.0000       1.726181        46.9718 
 174   0.0000       1.745297        47.4919 
 175   0.0000       1.749884        47.6168 
 176   0.0000       1.758660        47.8556 
 177   0.0000       1.767088        48.0849 
 178   0.0000       1.769789        48.1584 
 179   0.0000       1.773071        48.2477 
 180   0.0000       1.776648        48.3451 
 181   0.0000       1.784373        48.5553 
 182   0.0000       1.791124        48.7390 
 183   0.0000       1.798656        48.9439 
 184   0.0000       1.810284        49.2603 
 185   0.0000       1.825487        49.6740 
 186   0.0000       1.848186        50.2917 
 187   0.0000       1.858363        50.5686 
 188   0.0000       1.864038        50.7231 
 189   0.0000       1.868942        50.8565 
 190   0.0000       1.889455        51.4147 
 191   0.0000       1.892603        51.5003 
 192   0.0000       1.918629        52.2085 
 193   0.0000       1.926613        52.4258 
 194   0.0000       1.946281        52.9610 
 195   0.0000       1.958801        53.3017 
 196   0.0000       1.974253        53.7222 
 197   0.0000       1.998727        54.3881 
 198   0.0000       2.006683        54.6046 
 199   0.0000       2.033783        55.3421 
 200   0.0000       2.052353        55.8474 
 201   0.0000       2.064173        56.1690 
 202   0.0000       2.077226        56.5242 
 203   0.0000       2.085377        56.7460 
 204   0.0000       2.116123        57.5826 
 205   0.0000       2.165399        58.9235 
 206   0.0000       2.172743        59.1233 
 207   0.0000       2.176554        59.2271 
 208   0.0000       2.195168        59.7335 
 209   0.0000       2.214243        60.2526 
 210   0.0000       2.235446        60.8296 
 211   0.0000       2.242314        61.0165 
 212   0.0000       2.251084        61.2551 
 213   0.0000       2.259637        61.4878 
 214   0.0000       2.283881        62.1475 
 215   0.0000       2.286467        62.2179 
 216   0.0000       2.291344        62.3506 
 217   0.0000       2.298783        62.5531 
 218   0.0000       2.316240        63.0281 
 219   0.0000       2.329470        63.3881 
 220   0.0000       2.342453        63.7414 
 221   0.0000       2.343056        63.7578 
 222   0.0000       2.353534        64.0429 
 223   0.0000       2.362058        64.2749 
 224   0.0000       2.368628        64.4536 
 225   0.0000       2.394835        65.1668 
 226   0.0000       2.422016        65.9064 
 227   0.0000       2.447211        66.5920 
 228   0.0000       2.455030        66.8047 
 229   0.0000       2.483729        67.5857 
 230   0.0000       2.505171        68.1692 
 231   0.0000       2.542617        69.1881 
 232   0.0000       2.552480        69.4565 
 233   0.0000       2.570285        69.9410 
 234   0.0000       2.585487        70.3547 
 235   0.0000       2.610484        71.0349 
 236   0.0000       2.637875        71.7802 
 237   0.0000       2.643964        71.9459 
 238   0.0000       2.656555        72.2885 
 239   0.0000       2.692879        73.2770 
 240   0.0000       2.721392        74.0529 
 241   0.0000       2.738300        74.5129 
 242   0.0000       2.745991        74.7222 
 243   0.0000       2.768069        75.3230 
 244   0.0000       2.797833        76.1329 
 245   0.0000       2.801196        76.2244 
 246   0.0000       2.854116        77.6645 
 247   0.0000       2.882757        78.4438 
 248   0.0000       2.911702        79.2314 
 249   0.0000       2.928059        79.6765 
 250   0.0000       2.964186        80.6596 
 251   0.0000       2.982673        81.1626 
 252   0.0000       2.991360        81.3990 
 253   0.0000       3.056677        83.1764 
 254   0.0000       3.081620        83.8551 
 255   0.0000       3.091414        84.1217 
 256   0.0000       3.111731        84.6745 
 257   0.0000       3.152335        85.7794 
 258   0.0000       3.162460        86.0549 
 259   0.0000       3.171822        86.3097 
 260   0.0000       3.290090        89.5279 
 261   0.0000       3.321133        90.3726 
 262   0.0000       3.348160        91.1081 
 263   0.0000       3.384929        92.1086 
 264   0.0000       3.439928        93.6052 
 265   0.0000       3.498463        95.1980 
 266   0.0000       3.504006        95.3488 
 267   0.0000       3.557390        96.8015 

                    ********************************
                    * MULLIKEN POPULATION ANALYSIS *
                    ********************************

-----------------------
MULLIKEN ATOMIC CHARGES
-----------------------
   0 F :   -0.300204
   1 F :   -0.300763
   2 F :   -0.288861
   3 F :   -0.288583
   4 F :   -0.285404
   5 O :   -0.471453
   6 O :   -0.434451
   7 N :   -0.548789
   8 C :   -0.250138
   9 C :   -0.015457
  10 C :   -0.045833
  11 C :    0.311383
  12 C :    0.324014
  13 C :    0.277487
  14 C :    0.281098
  15 C :    0.551133
  16 C :    0.285052
  17 H :    0.130945
  18 H :    0.121300
  19 H :    0.131141
  20 H :    0.235970
  21 H :    0.250537
  22 H :    0.329878
Sum of atomic charges:    0.0000000

--------------------------------
MULLIKEN REDUCED ORBITAL CHARGES
--------------------------------
  0 F s       :     3.976041  s :     3.976041
      pz      :     1.898532  p :     5.306284
      px      :     1.895784
      py      :     1.511969
      dz2     :     0.002138  d :     0.017879
      dxz     :     0.000364
      dyz     :     0.004725
      dx2y2   :     0.005963
      dxy     :     0.004690

  1 F s       :     3.980304  s :     3.980304
      pz      :     1.852395  p :     5.302393
      px      :     1.719227
      py      :     1.730771
      dz2     :     0.002466  d :     0.018065
      dxz     :     0.003045
      dyz     :     0.003112
      dx2y2   :     0.003867
      dxy     :     0.005575

  2 F s       :     3.975603  s :     3.975603
      pz      :     1.901047  p :     5.295198
      px      :     1.893019
      py      :     1.501132
      dz2     :     0.002178  d :     0.018061
      dxz     :     0.000370
      dyz     :     0.004727
      dx2y2   :     0.006035
      dxy     :     0.004750

  3 F s       :     3.975744  s :     3.975744
      pz      :     1.845310  p :     5.294772
      px      :     1.716678
      py      :     1.732785
      dz2     :     0.002562  d :     0.018067
      dxz     :     0.003192
      dyz     :     0.003068
      dx2y2   :     0.003758
      dxy     :     0.005488

  4 F s       :     3.975675  s :     3.975675
      pz      :     1.863848  p :     5.291533
      px      :     1.555903
      py      :     1.871782
      dz2     :     0.002401  d :     0.018195
      dxz     :     0.004847
      dyz     :     0.001037
      dx2y2   :     0.005181
      dxy     :     0.004729

  5 O s       :     3.825394  s :     3.825394
      pz      :     1.563472  p :     4.622677
      px      :     1.655915
      py      :     1.403291
      dz2     :     0.005725  d :     0.023382
      dxz     :     0.005930
      dyz     :     0.001977
      dx2y2   :     0.006702
      dxy     :     0.003047

  6 O s       :     3.861745  s :     3.861745
      pz      :     1.549962  p :     4.544712
      px      :     1.415641
      py      :     1.579109
      dz2     :     0.004145  d :     0.027995
      dxz     :     0.004686
      dyz     :     0.004914
      dx2y2   :     0.007575
      dxy     :     0.006676

  7 N s       :     3.605852  s :     3.605852
      pz      :     1.482905  p :     3.912387
      px      :     1.298694
      py      :     1.130788
      dz2     :     0.004462  d :     0.030550
      dxz     :     0.004240
      dyz     :     0.010202
      dx2y2   :     0.006310
      dxy     :     0.005336

  8 C s       :     3.240775  s :     3.240775
      pz      :     0.995055  p :     2.972000
      px      :     0.921282
      py      :     1.055663
      dz2     :     0.005312  d :     0.037363
      dxz     :     0.009423
      dyz     :     0.008187
      dx2y2   :     0.009442
      dxy     :     0.004999

  9 C s       :     3.186270  s :     3.186270
      pz      :     0.972072  p :     2.771842
      px      :     0.859669
      py      :     0.940101
      dz2     :     0.007884  d :     0.057345
      dxz     :     0.015433
      dyz     :     0.009881
      dx2y2   :     0.013986
      dxy     :     0.010162

 10 C s       :     3.144228  s :     3.144228
      pz      :     1.023037  p :     2.861924
      px      :     0.903528
      py      :     0.935359
      dz2     :     0.004637  d :     0.039680
      dxz     :     0.006306
      dyz     :     0.007137
      dx2y2   :     0.010206
      dxy     :     0.011395

 11 C s       :     3.103708  s :     3.103708
      pz      :     1.019103  p :     2.510757
      px      :     0.900481
      py      :     0.591173
      dz2     :     0.007371  d :     0.074152
      dxz     :     0.007636
      dyz     :     0.015267
      dx2y2   :     0.023678
      dxy     :     0.020200

 12 C s       :     3.102433  s :     3.102433
      pz      :     0.982737  p :     2.499604
      px      :     0.743234
      py      :     0.773632
      dz2     :     0.007725  d :     0.073950
      dxz     :     0.011193
      dyz     :     0.012852
      dx2y2   :     0.020404
      dxy     :     0.021775

 13 C s       :     3.082498  s :     3.082498
      pz      :     1.053437  p :     2.566512
      px      :     0.930284
      py      :     0.582791
      dz2     :     0.007145  d :     0.073503
      dxz     :     0.007188
      dyz     :     0.016154
      dx2y2   :     0.021018
      dxy     :     0.022000

 14 C s       :     3.081057  s :     3.081057
      pz      :     1.008485  p :     2.564367
      px      :     0.779758
      py      :     0.776124
      dz2     :     0.008317  d :     0.073477
      dxz     :     0.011567
      dyz     :     0.012596
      dx2y2   :     0.020972
      dxy     :     0.020025

 15 C s       :     2.973404  s :     2.973404
      pz      :     0.734631  p :     2.352665
      px      :     0.730802
      py      :     0.887232
      dz2     :     0.024555  d :     0.122798
      dxz     :     0.026385
      dyz     :     0.018550
      dx2y2   :     0.030563
      dxy     :     0.022745

 16 C s       :     3.086417  s :     3.086417
      pz      :     1.012037  p :     2.554106
      px      :     0.651234
      py      :     0.890836
      dz2     :     0.008003  d :     0.074425
      dxz     :     0.014272
      dyz     :     0.010083
      dx2y2   :     0.020877
      dxy     :     0.021190

 17 H s       :     0.857501  s :     0.857501
      pz      :     0.004864  p :     0.011554
      px      :     0.002721
      py      :     0.003969

 18 H s       :     0.867043  s :     0.867043
      pz      :     0.002995  p :     0.011656
      px      :     0.002204
      py      :     0.006458

 19 H s       :     0.857971  s :     0.857971
      pz      :     0.005135  p :     0.010888
      px      :     0.002497
      py      :     0.003256

 20 H s       :     0.740193  s :     0.740193
      pz      :     0.007351  p :     0.023838
      px      :     0.005421
      py      :     0.011066

 21 H s       :     0.725560  s :     0.725560
      pz      :     0.009187  p :     0.023903
      px      :     0.007256
      py      :     0.007461

 22 H s       :     0.632578  s :     0.632578
      pz      :     0.008287  p :     0.037544
      px      :     0.008086
      py      :     0.021171


------------------------
MULLIKEN OVERLAP CHARGES
------------------------
B(  0-F , 10-C ) :  -0.1205 B(  0-F , 11-C ) :   0.5948 B(  0-F , 14-C ) :  -0.0840 
B(  1-F , 10-C ) :  -0.1135 B(  1-F , 12-C ) :   0.5697 B(  1-F , 13-C ) :  -0.0808 
B(  2-F , 12-C ) :  -0.0825 B(  2-F , 13-C ) :   0.5822 B(  2-F , 16-C ) :  -0.0825 
B(  3-F , 11-C ) :  -0.0819 B(  3-F , 14-C ) :   0.5809 B(  3-F , 16-C ) :  -0.0822 
B(  4-F , 13-C ) :  -0.0774 B(  4-F , 14-C ) :  -0.0779 B(  4-F , 16-C ) :   0.5746 
B(  5-O ,  6-O ) :  -0.1604 B(  5-O ,  9-C ) :  -0.1643 B(  5-O , 15-C ) :   0.5713 
B(  5-O , 22-H ) :   0.5507 B(  6-O ,  9-C ) :  -0.1571 B(  6-O , 15-C ) :   1.2296 
B(  7-N ,  8-C ) :  -0.1205 B(  7-N ,  9-C ) :   0.6872 B(  7-N , 15-C ) :  -0.0818 
B(  7-N , 19-H ) :  -0.0751 B(  7-N , 20-H ) :   0.6839 B(  7-N , 21-H ) :   0.6765 
B(  8-C ,  9-C ) :   0.6670 B(  8-C , 10-C ) :   0.5033 B(  8-C , 11-C ) :  -0.0968 
B(  8-C , 12-C ) :  -0.0932 B(  8-C , 15-C ) :  -0.0536 B(  8-C , 17-H ) :   0.7243 
B(  8-C , 18-H ) :   0.7404 B(  8-C , 19-H ) :  -0.0964 B(  9-C , 15-C ) :   0.5953 
B(  9-C , 17-H ) :  -0.0683 B(  9-C , 18-H ) :  -0.0716 B(  9-C , 19-H ) :   0.7376 
B(  9-C , 20-H ) :  -0.0878 B(  9-C , 21-H ) :  -0.0843 B( 10-C , 11-C ) :   0.7556 
B( 10-C , 12-C ) :   0.7540 B( 10-C , 13-C ) :  -0.1154 B( 10-C , 14-C ) :  -0.1185 
B( 10-C , 17-H ) :  -0.0585 B( 10-C , 18-H ) :  -0.0597 B( 11-C , 14-C ) :   0.6197 
B( 11-C , 16-C ) :  -0.0903 B( 12-C , 13-C ) :   0.6253 B( 12-C , 14-C ) :  -0.0512 
B( 12-C , 16-C ) :  -0.0934 B( 13-C , 14-C ) :  -0.0795 B( 13-C , 16-C ) :   0.5926 
B( 14-C , 16-C ) :   0.5965 B( 15-C , 19-H ) :  -0.0650 B( 17-H , 18-H ) :  -0.0570 
B( 20-H , 21-H ) :  -0.0634 


                     *******************************
                     * LOEWDIN POPULATION ANALYSIS *
                     *******************************

----------------------
LOEWDIN ATOMIC CHARGES
----------------------
   0 F :   -0.082280
   1 F :   -0.079367
   2 F :   -0.071523
   3 F :   -0.071069
   4 F :   -0.065920
   5 O :   -0.146145
   6 O :   -0.232685
   7 N :   -0.245215
   8 C :   -0.118197
   9 C :   -0.034977
  10 C :   -0.070496
  11 C :    0.090004
  12 C :    0.090319
  13 C :    0.058702
  14 C :    0.059543
  15 C :    0.146378
  16 C :    0.071585
  17 H :    0.086137
  18 H :    0.082996
  19 H :    0.083480
  20 H :    0.125463
  21 H :    0.132078
  22 H :    0.191192

-------------------------------
LOEWDIN REDUCED ORBITAL CHARGES
-------------------------------
  0 F s       :     3.728122  s :     3.728122
      pz      :     1.892207  p :     5.317491
      px      :     1.892434
      py      :     1.532850
      dz2     :     0.004360  d :     0.036667
      dxz     :     0.000741
      dyz     :     0.009857
      dx2y2   :     0.012335
      dxy     :     0.009373

  1 F s       :     3.729062  s :     3.729062
      pz      :     1.848794  p :     5.313591
      px      :     1.726778
      py      :     1.738020
      dz2     :     0.005046  d :     0.036714
      dxz     :     0.006290
      dyz     :     0.006391
      dx2y2   :     0.007478
      dxy     :     0.011508

  2 F s       :     3.726271  s :     3.726271
      pz      :     1.894753  p :     5.307824
      px      :     1.889695
      py      :     1.523376
      dz2     :     0.004415  d :     0.037429
      dxz     :     0.000743
      dyz     :     0.010173
      dx2y2   :     0.012481
      dxy     :     0.009617

  3 F s       :     3.726344  s :     3.726344
      pz      :     1.842685  p :     5.307299
      px      :     1.724798
      py      :     1.739815
      dz2     :     0.005404  d :     0.037427
      dxz     :     0.006664
      dyz     :     0.006479
      dx2y2   :     0.007415
      dxy     :     0.011465

  4 F s       :     3.725213  s :     3.725213
      pz      :     1.859341  p :     5.303127
      px      :     1.574946
      py      :     1.868840
      dz2     :     0.004964  d :     0.037580
      dxz     :     0.010200
      dyz     :     0.002153
      dx2y2   :     0.010714
      dxy     :     0.009550

  5 O s       :     3.473471  s :     3.473471
      pz      :     1.564444  p :     4.623191
      px      :     1.653803
      py      :     1.404943
      dz2     :     0.010148  d :     0.049483
      dxz     :     0.013554
      dyz     :     0.006781
      dx2y2   :     0.013189
      dxy     :     0.005811

  6 O s       :     3.562127  s :     3.562127
      pz      :     1.549540  p :     4.615037
      px      :     1.457695
      py      :     1.607802
      dz2     :     0.007496  d :     0.055521
      dxz     :     0.010283
      dyz     :     0.008872
      dx2y2   :     0.011753
      dxy     :     0.017117

  7 N s       :     3.208626  s :     3.208626
      pz      :     1.479531  p :     3.978056
      px      :     1.336947
      py      :     1.161578
      dz2     :     0.006738  d :     0.058534
      dxz     :     0.008257
      dyz     :     0.016628
      dx2y2   :     0.014327
      dxy     :     0.012584

  8 C s       :     2.898158  s :     2.898158
      pz      :     1.054826  p :     3.137931
      px      :     0.997995
      py      :     1.085109
      dz2     :     0.011141  d :     0.082109
      dxz     :     0.022554
      dyz     :     0.015920
      dx2y2   :     0.021374
      dxy     :     0.011119

  9 C s       :     2.881235  s :     2.881235
      pz      :     1.040260  p :     3.026852
      px      :     0.967999
      py      :     1.018593
      dz2     :     0.016580  d :     0.126890
      dxz     :     0.035884
      dyz     :     0.020967
      dx2y2   :     0.031975
      dxy     :     0.021483

 10 C s       :     2.872191  s :     2.872191
      pz      :     1.027083  p :     3.098518
      px      :     1.032077
      py      :     1.039358
      dz2     :     0.010300  d :     0.099787
      dxz     :     0.013008
      dyz     :     0.016471
      dx2y2   :     0.028747
      dxy     :     0.031261

 11 C s       :     2.854661  s :     2.854661
      pz      :     1.031336  p :     2.871050
      px      :     1.043909
      py      :     0.795805
      dz2     :     0.017757  d :     0.184284
      dxz     :     0.016956
      dyz     :     0.034458
      dx2y2   :     0.059991
      dxy     :     0.055122

 12 C s       :     2.855360  s :     2.855360
      pz      :     0.995790  p :     2.870386
      px      :     0.928565
      py      :     0.946031
      dz2     :     0.017410  d :     0.183934
      dxz     :     0.026415
      dyz     :     0.029271
      dx2y2   :     0.055357
      dxy     :     0.055481

 13 C s       :     2.854918  s :     2.854918
      pz      :     1.052920  p :     2.902716
      px      :     1.048423
      py      :     0.801374
      dz2     :     0.017420  d :     0.183664
      dxz     :     0.015985
      dyz     :     0.036072
      dx2y2   :     0.054293
      dxy     :     0.059894

 14 C s       :     2.855229  s :     2.855229
      pz      :     1.018513  p :     2.901701
      px      :     0.939368
      py      :     0.943820
      dz2     :     0.018748  d :     0.183528
      dxz     :     0.027542
      dyz     :     0.028621
      dx2y2   :     0.058366
      dxy     :     0.050251

 15 C s       :     2.850617  s :     2.850617
      pz      :     0.842589  p :     2.715632
      px      :     0.876155
      py      :     0.996889
      dz2     :     0.055041  d :     0.287372
      dxz     :     0.066959
      dyz     :     0.040214
      dx2y2   :     0.071239
      dxy     :     0.053920

 16 C s       :     2.856044  s :     2.856044
      pz      :     1.017640  p :     2.887442
      px      :     0.836435
      py      :     1.033367
      dz2     :     0.018588  d :     0.184929
      dxz     :     0.033075
      dyz     :     0.022402
      dx2y2   :     0.053770
      dxy     :     0.057094

 17 H s       :     0.873347  s :     0.873347
      pz      :     0.018083  p :     0.040516
      px      :     0.008770
      py      :     0.013663

 18 H s       :     0.876862  s :     0.876862
      pz      :     0.009800  p :     0.040143
      px      :     0.006508
      py      :     0.023834

 19 H s       :     0.876710  s :     0.876710
      pz      :     0.018757  p :     0.039810
      px      :     0.008569
      py      :     0.012483

 20 H s       :     0.797115  s :     0.797115
      pz      :     0.023748  p :     0.077422
      px      :     0.016344
      py      :     0.037331

 21 H s       :     0.789099  s :     0.789099
      pz      :     0.033258  p :     0.078823
      px      :     0.022445
      py      :     0.023120

 22 H s       :     0.695148  s :     0.695148
      pz      :     0.023754  p :     0.113660
      px      :     0.024023
      py      :     0.065884


---------------------------------
LOEWDIN BOND ORDERS (THRESH 0.050000)
---------------------------------
B(  0-F , 10-C ) :   0.0878 B(  0-F , 11-C ) :   1.2667 B(  0-F , 14-C ) :   0.0913 
B(  1-F , 10-C ) :   0.0874 B(  1-F , 12-C ) :   1.2636 B(  1-F , 13-C ) :   0.0911 
B(  2-F , 12-C ) :   0.0922 B(  2-F , 13-C ) :   1.2870 B(  2-F , 16-C ) :   0.0915 
B(  3-F , 11-C ) :   0.0920 B(  3-F , 14-C ) :   1.2873 B(  3-F , 16-C ) :   0.0918 
B(  4-F , 13-C ) :   0.0914 B(  4-F , 14-C ) :   0.0916 B(  4-F , 16-C ) :   1.2936 
B(  5-O ,  6-O ) :   0.2036 B(  5-O ,  9-C ) :   0.0642 B(  5-O , 15-C ) :   1.4002 
B(  5-O , 22-H ) :   0.9826 B(  6-O ,  9-C ) :   0.0860 B(  6-O , 15-C ) :   2.2115 
B(  7-N ,  8-C ) :   0.0732 B(  7-N ,  9-C ) :   1.1626 B(  7-N , 15-C ) :   0.0537 
B(  7-N , 20-H ) :   0.9848 B(  7-N , 21-H ) :   0.9791 B(  8-C ,  9-C ) :   0.9819 
B(  8-C , 10-C ) :   1.0282 B(  8-C , 11-C ) :   0.0620 B(  8-C , 12-C ) :   0.0622 
B(  8-C , 15-C ) :   0.0542 B(  8-C , 17-H ) :   0.9218 B(  8-C , 18-H ) :   0.9174 
B(  9-C , 15-C ) :   0.9822 B(  9-C , 19-H ) :   0.9033 B( 10-C , 11-C ) :   1.3798 
B( 10-C , 12-C ) :   1.3765 B( 10-C , 13-C ) :   0.0821 B( 10-C , 14-C ) :   0.0823 
B( 10-C , 16-C ) :   0.0897 B( 11-C , 12-C ) :   0.0879 B( 11-C , 13-C ) :   0.0865 
B( 11-C , 14-C ) :   1.3699 B( 11-C , 16-C ) :   0.0860 B( 12-C , 13-C ) :   1.3732 
B( 12-C , 14-C ) :   0.0870 B( 12-C , 16-C ) :   0.0863 B( 13-C , 14-C ) :   0.0850 
B( 13-C , 16-C ) :   1.3613 B( 14-C , 16-C ) :   1.3637 B( 15-C , 22-H ) :   0.0569 


------------------------------------------
LOEWDIN REDUCED ORBITAL POPULATIONS PER MO
-------------------------------------------
THRESHOLD FOR PRINTING IS 0.1%%
                      0         1         2         3         4         5   
                 -24.73197 -24.73064 -24.73009 -24.72913 -24.72869 -19.20338
                   2.00000   2.00000   2.00000   2.00000   2.00000   2.00000
                  --------  --------  --------  --------  --------  --------
 0 F  s               0.0      99.9       0.0       0.0       0.0       0.0
 1 F  s               0.0       0.0      99.9       0.0       0.0       0.0
 2 F  s               0.0       0.0       0.0      99.9       0.0       0.0
 3 F  s               0.0       0.0       0.0       0.0      99.9       0.0
 4 F  s              99.9       0.0       0.0       0.0       0.0       0.0
 5 O  s               0.0       0.0       0.0       0.0       0.0      99.9

                      6         7         8         9        10        11   
                 -19.14089 -14.32392 -10.32201 -10.30421 -10.29998 -10.29960
                   2.00000   2.00000   2.00000   2.00000   2.00000   2.00000
                  --------  --------  --------  --------  --------  --------
 0 F  py              0.0       0.0       0.0       0.0       0.1       0.0
 4 F  px              0.0       0.0       0.0       0.1       0.0       0.0
 5 O  pz              0.0       0.0       0.1       0.0       0.0       0.0
 6 O  s              99.8       0.0       0.1       0.0       0.0       0.0
 6 O  px              0.0       0.0       0.2       0.0       0.0       0.0
 6 O  py              0.0       0.0       0.1       0.0       0.0       0.0
 6 O  dxy             0.0       0.0       0.1       0.0       0.0       0.0
 7 N  s               0.0      99.7       0.0       0.0       0.0       0.0
 9 C  py              0.0       0.0       0.1       0.0       0.0       0.0
11 C  s               0.0       0.0       0.0       0.0      84.0       0.3
12 C  s               0.0       0.0       0.0       0.0       0.0      48.9
13 C  s               0.0       0.0       0.0       0.2       0.1      49.9
14 C  s               0.0       0.0       0.0       0.3      15.1       0.1
14 C  px              0.0       0.0       0.0       0.0       0.2       0.0
14 C  py              0.0       0.0       0.0       0.2       0.0       0.0
15 C  s               0.0       0.0      98.9       0.0       0.0       0.0
16 C  s               0.0       0.0       0.0      98.8       0.0       0.1

                     12        13        14        15        16        17   
                 -10.29934 -10.29914 -10.23824 -10.22998 -10.21526  -1.25880
                   2.00000   2.00000   2.00000   2.00000   2.00000   2.00000
                  --------  --------  --------  --------  --------  --------
 0 F  s               0.0       0.0       0.0       0.0       0.0       5.7
 0 F  py              0.0       0.0       0.0       0.0       0.0       0.2
 1 F  s               0.0       0.0       0.0       0.0       0.0       4.8
 2 F  s               0.0       0.0       0.0       0.0       0.0      15.9
 2 F  py              0.0       0.1       0.0       0.0       0.0       0.5
 3 F  s               0.0       0.0       0.0       0.0       0.0      15.6
 3 F  px              0.1       0.0       0.0       0.0       0.0       0.2
 3 F  py              0.0       0.0       0.0       0.0       0.0       0.2
 4 F  s               0.0       0.0       0.0       0.0       0.0      30.6
 4 F  px              0.0       0.0       0.0       0.0       0.0       0.7
 7 N  px              0.0       0.0       0.1       0.0       0.0       0.0
 8 C  s               0.0       0.0       0.0       0.0      99.5       0.0
 8 C  px              0.0       0.0       0.1       0.1       0.0       0.0
 9 C  s               0.0       0.0      99.4       0.0       0.0       0.0
10 C  s               0.0       0.0       0.0      99.3       0.0       0.2
10 C  px              0.0       0.0       0.0       0.0       0.1       0.1
11 C  s              15.0       0.0       0.0       0.0       0.0       1.4
11 C  px              0.1       0.0       0.0       0.1       0.0       0.1
11 C  py              0.0       0.0       0.0       0.1       0.0       0.5
12 C  s               0.2      50.2       0.0       0.0       0.0       1.2
12 C  py              0.0       0.0       0.0       0.2       0.0       0.5
13 C  s               0.1      49.0       0.0       0.0       0.0       3.6
13 C  px              0.0       0.1       0.0       0.0       0.0       0.4
13 C  py              0.0       0.0       0.0       0.0       0.0       1.3
13 C  dz2             0.0       0.0       0.0       0.0       0.0       0.1
13 C  dx2y2           0.0       0.0       0.0       0.0       0.0       0.1
14 C  s              83.8       0.0       0.0       0.0       0.0       3.5
14 C  pz              0.0       0.0       0.0       0.0       0.0       0.2
14 C  px              0.0       0.0       0.0       0.0       0.0       1.1
14 C  py              0.0       0.0       0.0       0.0       0.0       0.3
[...]
  9 C      6.0155     6.0000    -0.0155     3.8665     3.8665     0.0000
 10 C      6.0458     6.0000    -0.0458     3.7957     3.7957     0.0000
 11 C      5.6886     6.0000     0.3114     3.7500     3.7500     0.0000
 12 C      5.6760     6.0000     0.3240     3.7455     3.7455     0.0000
 13 C      5.7225     6.0000     0.2775     3.6898     3.6898     0.0000
 14 C      5.7189     6.0000     0.2811     3.6863     3.6863     0.0000
 15 C      5.4489     6.0000     0.5511     3.9608     3.9608     0.0000
 16 C      5.7149     6.0000     0.2851     3.6958     3.6958     0.0000
 17 H      0.8691     1.0000     0.1309     0.9606     0.9606     0.0000
 18 H      0.8787     1.0000     0.1213     0.9604     0.9604     0.0000
 19 H      0.8689     1.0000     0.1311     0.9500     0.9500    -0.0000
 20 H      0.7640     1.0000     0.2360     0.9229     0.9229     0.0000
 21 H      0.7495     1.0000     0.2505     0.9276     0.9276    -0.0000
 22 H      0.6701     1.0000     0.3299     0.9080     0.9080     0.0000

  Mayer bond orders larger than 0.100000
B(  0-F , 11-C ) :   0.9345 B(  1-F , 12-C ) :   0.9191 B(  2-F , 13-C ) :   0.9504 
B(  3-F , 14-C ) :   0.9495 B(  4-F , 16-C ) :   0.9482 B(  5-O , 15-C ) :   1.0823 
B(  5-O , 22-H ) :   0.8494 B(  6-O , 15-C ) :   1.9239 B(  7-N ,  9-C ) :   1.0387 
B(  7-N , 20-H ) :   0.9092 B(  7-N , 21-H ) :   0.8942 B(  8-C ,  9-C ) :   0.9521 
B(  8-C , 10-C ) :   0.9633 B(  8-C , 17-H ) :   0.9333 B(  8-C , 18-H ) :   0.9357 
B(  9-C , 15-C ) :   0.9224 B(  9-C , 19-H ) :   0.9299 B( 10-C , 11-C ) :   1.3513 
B( 10-C , 12-C ) :   1.3459 B( 11-C , 14-C ) :   1.2907 B( 12-C , 13-C ) :   1.2951 
B( 13-C , 16-C ) :   1.2877 B( 14-C , 16-C ) :   1.2903 

-------
TIMINGS
-------

Total SCF time: 0 days 0 hours 1 min 11 sec 

Total time                  ....      71.045 sec
Sum of individual times     ....      67.782 sec  ( 95.4%)

SCF preparation             ....       0.368 sec  (  0.5%)
Fock matrix formation       ....      66.678 sec  ( 93.9%)
  Startup                   ....       0.006 sec  (  0.0% of F)
  Split-RI-J                ....       6.728 sec  ( 10.1% of F)
  Chain of spheres X        ....      54.200 sec  ( 81.3% of F)
  XC integration            ....       8.874 sec  ( 13.3% of F)
    XC Preparation          ....       0.000 sec  (  0.0% of XC)
    Basis function eval.    ....       3.240 sec  ( 36.5% of XC)
    Density eval.           ....       1.989 sec  ( 22.4% of XC)
    XC-Functional eval.     ....       0.447 sec  (  5.0% of XC)
    XC-Potential eval.      ....       2.630 sec  ( 29.6% of XC)
Diagonalization             ....       0.000 sec  (  0.0%)
Density matrix formation    ....       0.044 sec  (  0.1%)
Total Energy calculation    ....       0.019 sec  (  0.0%)
Population analysis         ....       0.337 sec  (  0.5%)
Orbital Transformation      ....       0.036 sec  (  0.1%)
Orbital Orthonormalization  ....       0.000 sec  (  0.0%)
DIIS solution               ....       0.176 sec  (  0.2%)
  MO trafo                  ....       0.000 sec  (  0.0 % of DIIS)
  Orb grad                  ....       0.000 sec  (  0.0 % of DIIS)
  Energy W gradient         ....       0.000 sec  (  0.0 % of DIIS)
  DIIS error                ....       0.038 sec  ( 21.9 % of DIIS)
  DIIS work                 ....       0.113 sec  ( 64.6 % of DIIS)
  Form Q                    ....       0.000 sec  (  0.0 % of DIIS)
  Form QpQm                 ....       0.000 sec  (  0.0 % of DIIS)
  Exp/Cayley                ....       0.000 sec  (  0.0 % of DIIS)
  Orb update                ....       0.000 sec  (  0.0 % of DIIS)
  Wake-sleep                ....       0.006 sec  (  3.1 % of DIIS)
SOSCF solution              ....       0.124 sec  (  0.2%)
  MO trafo                  ....       0.042 sec  ( 33.8 % of SOSCF)
  Orb grad                  ....       0.003 sec  (  2.7 % of SOSCF)
  Rot update                ....       0.013 sec  ( 10.3 % of SOSCF)
  Step                      ....       0.060 sec  ( 48.5 % of SOSCF)
Finished LeanSCF after  71.1 sec

Maximum memory used throughout the entire LEANSCF-calculation: 31.4 MB


-------------------------------------------------------------------------------
                          DFT DISPERSION CORRECTION                            
                                                                               
                              DFTD3 V3.1  Rev 1                                
                          USING Becke-Johnson damping                          
-------------------------------------------------------------------------------
The B3LYP functional is recognized
Active option DFTDOPT                   ...         4   

molecular C6(AA) [au] = 5996.184578 


            DFT-D V3
 parameters
 s6 scaling factor         :     1.0000 
 a1 scaling factor         :     0.3981 
 s8 scaling factor         :     1.9889 
 a2 scaling factor         :     4.4211 
 ad hoc parameters k1-k3   :    16.0000     1.3333    -4.0000 

 Edisp/kcal,au: -28.586158174009  -0.045554937903 
 E6   /kcal   : -13.437965226 
 E8   /kcal   : -15.148192948 
 % E8         :  52.991356360 

-------------------------   ----------------
Dispersion correction           -0.045554938
-------------------------   ----------------


-------------------------   --------------------
FINAL SINGLE POINT ENERGY     -1050.487899870475
-------------------------   --------------------



           ************************************************************
           *        Program running with 2 parallel MPI-processes     *
           *              working on a common directory               *
           ************************************************************
------------------------------------------------------------------------------
                            ORCA SCF RESPONSE CALCULATION
------------------------------------------------------------------------------

GBWName                                 ... /kaggle/working/Phe-F5-2/Phe-F5_InterFrag.gbw
Number of atoms                         ...     23
Number of basis functions               ...    268
Max core memory                         ...   3000 MB

Electric field perturbation             ... YES
Quadrupolar field perturbation          ...  NO
Magnetic field perturbation (no GIAO)   ...  NO
Magnetic field perturbation (with GIAO) ...  NO
Linear momentum (velocity) perturbation ...  NO
Spin-orbit coupling perturbation        ...  NO
Choice of electric origin               ... Center of mass
Position of electric origin             ...     0.126741    -0.085335    -0.062693
Choice of magnetic origin               ... GIAO
Position of magnetic origin             ...     0.000000     0.000000     0.000000
Nuclear geometric perturbations         ...  NO (  69 perturbations)
Nucleus-orbit perturbations             ...  NO (   0 perturbations)
Spin-dipole/Fermi contact perturbations ...  NO (   0 perturbations)

Total number of real perturbations      ...      3
Total number of imaginary perturbations ...      0
Total number of triplet perturbations   ...      0
Total number of SOC perturbations       ...      0

Using XC Grid                  ... (/kaggle/working/Phe-F5-2/Phe-F5_InterFrag.grid_cpscf.tmp) 
Recalculating density on grid  ... (/kaggle/working/Phe-F5-2/Phe-F5_InterFrag.grho_cpscf0.tmp) done
Calculating the xc-kernel      ... (/kaggle/working/Phe-F5-2/Phe-F5_InterFrag.fxc_cpscf0.tmp) done

                                **********************
                                * REAL PERTURBATIONS *
                                **********************



-------------------
SHARK CP-SCF DRIVER
-------------------

Dimension of the orbital basis          ...    268
Dimension of the CPSCF-problem          ...  13056
Number of operators                     ...      1
Max. number of iterations               ...    128
Convergence Tolerance                   ... 1.0e-04
Number of perturbations                 ...      3
Perturbation type                       ... REAL

----------------------------
POPLE LINEAR EQUATION SOLVER
----------------------------

  ITERATION   0:   ||err||_max =   2.0656e+01 (   3.2 sec   0/  3 done)
  ITERATION   1:   ||err||_max =   1.1284e+00 (   2.9 sec   0/  3 done)
  ITERATION   2:   ||err||_max =   4.3630e-01 (   2.9 sec   0/  3 done)
  ITERATION   3:   ||err||_max =   1.3785e-01 (   2.8 sec   0/  3 done)
  ITERATION   4:   ||err||_max =   5.0476e-02 (   2.9 sec   0/  3 done)
  ITERATION   5:   ||err||_max =   1.2347e-02 (   2.9 sec   0/  3 done)
  ITERATION   6:   ||err||_max =   4.2126e-03 (   2.9 sec   0/  3 done)
  ITERATION   7:   ||err||_max =   1.0929e-03 (   3.0 sec   0/  3 done)
  ITERATION   8:   ||err||_max =   4.0316e-04 (   2.9 sec   0/  3 done)
  ITERATION   9:   ||err||_max =   1.4607e-04 (   3.1 sec   2/  3 done)
  ITERATION  10:   ||err||_max =   4.0780e-05 (   2.2 sec   3/  3 done)

CP-SCF equations solved in  31.8 sec
Response densities calculated in   0.0 sec

Maximum memory used throughout the entire SCFRESP-calculation: 36.0 MB


           ************************************************************
           *        Program running with 2 parallel MPI-processes     *
           *              working on a common directory               *
           ************************************************************

------------------------------------------------------------------------------
                              ORCA PROPERTY CALCULATIONS
------------------------------------------------------------------------------

GBWName                                 ... /kaggle/working/Phe-F5-2/Phe-F5_InterFrag.gbw
Number of atoms                         ...     23
Number of basis functions               ...    268
Max core memory                         ...   3000 MB

Electric properties:
Dipole moment                           ... YES
Quadrupole moment                       ...  NO
Static polarizability (Dipole/Dipole)   ... YES
Static polarizability (Dipole/Quad.)    ...  NO
Static polarizability (Quad./Quad.)     ...  NO
Static polarizability (Velocity)        ...  NO
Static hyperpolarizability              ...  NO

Atomic electric properties:
Dipole moment                           ...  NO
Quadrupole moment                       ...  NO
Static polarizability                   ...  NO

Choice of electric origin               ... Center of mass
Position of electric origin             ...     0.126741    -0.085335    -0.062693

General magnetic properties:
Magnetizability                         ...  NO

EPR properties:
g-Tensor (aka g-matrix)                 ...  NO
Zero-Field splitting spin-orbit         ...  NO
Zero-field splitting spin-spin          ...  NO
Hyperfine couplings                     ...  NO (   0 nuclei)
Quadrupole couplings                    ...  NO (   0 nuclei)
Contact density                         ...  NO (   0 nuclei)

NMR properties:
Chemical shifts                         ...  NO (   0 nuclei)
Spin-rotation constants                 ...  NO (   0 nuclei)
Spin-spin couplings                     ...  NO (   0 nuclei,    0 pairs)

Choice of magnetic origin               ... GIAO
Position of magnetic origin             ...     0.000000     0.000000     0.000000

Properties with geometric perturbations:
SCF Hessian                             ...  NO
IR spectrum                             ...  NO
VCD spectrum                            ...  NO
X-ray spectroscopy properties:
SCF XES/XAS/RIXS spectra                ...  NO

SCF SOC stabilization energy            ...  NO
Diagonal Born-Oppenheimer correction    ...  NO

-------------
DIPOLE MOMENT
-------------

Method             : SCF
Type of density    : Electron Density
Multiplicity       :   1
Irrep              :   0
Energy             : -1050.4423449325715865 Eh
Basis              : AO
                                X                 Y                 Z
Electronic contribution:     22.295945192      -5.655143237      -1.411961487
Nuclear contribution   :    -22.146426705       6.058685813       1.769725677
                        -----------------------------------------
Total Dipole Moment    :      0.149518487       0.403542576       0.357764190
                        -----------------------------------------
Magnitude (a.u.)       :      0.559640602
Magnitude (Debye)      :      1.422493363



--------------------
Rotational spectrum 
--------------------
 
Rotational constants in cm-1:             0.024000             0.011279             0.008664 
Rotational constants in MHz :           719.502371           338.129950           259.735055 

Dipole components along the rotational axes: 
x,y,z [a.u.] :     0.115317    -0.379013     0.395283 
x,y,z [Debye]:     0.293112    -0.963374     1.004730 

 

Dipole moment calculation done in   0.0 sec 


---------------------------------------------------
STATIC POLARIZABILITY TENSOR (Dipole/Dipole)
---------------------------------------------------

Method             : SCF
Type of density    : Electron Density
Type of derivative : Electric Field (Direction=X)
Multiplicity       :   1
Irrep              :   0
Basis              : AO

The raw cartesian tensor (atomic units):
     131.132881025        -6.093869877       -18.801060695  
      -6.093869877       111.820632897        -1.063803623  
     -18.801060695        -1.063803623        68.232913780  
diagonalized tensor: 
      62.897134009       110.745497143       137.543796549  

Orientation: 
       0.269758751         0.191123557        -0.943770100  
       0.054505476         0.975502514         0.213129066  
       0.961384090        -0.108934069         0.252733060  

Isotropic polarizability : 103.72881


Polarizability tensor calculation done in   0.0 sec 

Maximum memory used throughout the entire PROP-calculation: 16.6 MB

--------------------------------
SUGGESTED CITATIONS FOR THIS RUN
--------------------------------

Below you find a list of papers that are relevant to this ORCA run
We neither can nor want to force you to cite these papers, but we appreciate if you do
You receive ORCA, which is the product of decades of hard work by many enthusiastic individuals, for free
The only thing we kindly ask in return is that you cite our papers,
We deeply appreciate it, if you show your appreciation for ORCA by not just citing the generic ORCA reference.

Please note that relegating all ORCA citations to the supporting information does *not* help us.
SI sections are not indexed - citations you put there will not count into any citation statistics
But we need these citations in order to attract the funding resources that allow us to do what we are doing

Therefore, if you are a happy ORCA user, please consider citing a few of the papers listed below in the main body of your paper

In addition to the list printed below, the program has created the file /kaggle/working/Phe-F5-2/Phe-F5_InterFrag.bibtex that contains the list in bibtex format
You can import this file easily into all common literature databanks and citation aid programs

It goes without saying that in many instances, there are alternative algorithms to achieve similar
results as the ones you have gotten from ORCA. It is, of course, also the case that in some instances
ORCA just re-implements algorithms worked out by others. We are fully aware of that and we are also
fully appreciative of our colleagues work. Hence this citation list should not be read as indicating
that the listed papers, which are focused on our own work, are the only ones worth citing. It simply
meant to make it easier for users to cite ORCA specific papers. It is not a substitute for doing your
own literature research and citing the relevant literature in a scientifically appropriate manner.

List of essential papers. We consider these as the minimum necessary citations

  1. Neese, F.
     Software update: the ORCA program system, version 6.0
     WIRES Comput. Molec. Sci. 2025 15(1), e70019
     doi.org/10.1002/wcms.70019

List of papers to cite with high priority. The work reported in these papers was absolutely
necessary for this run to complete.
Our perspective: the developers of density functionals and basis sets usually get cited in chemistry papers
Good! But without the algorithms to do something with them, the functionals or basis sets would not do anything.
Hence, in our opinion, the algorithm design and method developments papers are equally worthy of getting cited

  1. Neese, F.
     An improvement of the resolution of the identity approximation for the formation of the Coulomb matrix
     J. Comp. Chem. 2003 24(14), 1740-1747
     doi.org/10.1002/jcc.10318
  2. Neese, F.; Wennmohs, F.; Hansen, A.; Becker, U.
     Efficient, approximate and parallel Hartree-Fock and hybrid DFT calculations. A 'chain-of-spheres' algorithm for the Hartree-Fock exchange
     Chem. Phys. 2009 356(1-3), 98-109
     doi.org/10.1016/j.chemphys.2008.10.036
  3. Grimme, S.; Antony, J.; Ehrlich, S.; Krieg, H.
     A consistent and accurate ab initio parametrization of density functional dispersion correction (DFT-D) for the 94 elements H-Pu
     J. Chem. Phys. 2010 132 , 154104
     doi.org/10.1063/1.3382344
  4. Grimme, S.; Ehrlich, S.; Goerigk, L.
     Effect of the damping function in dispersion corrected density functional theory
     J. Comput. Chem. 2011 32(7), 1456-1465
     doi.org/10.1002/jcc.21759
  5. Helmich-Paris, B.; de Souza, B.; Neese, F.; Izsák, R.
     An improved chain of spheres for exchange algorithm
     J. Chem. Phys. 2021 155(10), 104109
     doi.org/10.1063/5.0058766
  6. Neese, F.
     The SHARK Integral Generation and Digestion System
     J. Comp. Chem. 2022 44(3), 381
     doi.org/10.1002/jcc.26942

List of suggested additional citations. These are papers that are important in the 'surrounding' of 
of this run, or papers that preceded the highly important papers. If you like your results we are grateful for a citation.

  1. Izsak, R.; Neese, F.
     An overlap fitted chain of spheres exchange method
     J. Chem. Phys. 2011 135 , 144105
     doi.org/10.1063/1.3646921
  2. Izsak, R.; Hansen, A.; Neese, F.
     The resolution of identity and chain of spheres approximations for the LPNO-CCSD singles Fock term
     Molec. Phys. 2012 110 , 2413-2417
     doi.org/10.1080/00268976.2012.687466
  3. Neese, F.
     The ORCA program system
     WIRES Comput. Molec. Sci. 2012 2(1), 73-78
     doi.org/10.1002/wcms.81
  4. Izsak, R.; Neese, F.; Klopper, W.
     Robust fitting techniques in the chain of spheres approximation to the Fock exchange: The role of the complementary space
     J. Chem. Phys. 2013 139 , 
     doi.org/10.1063/1.4819264
  5. Neese, F.
     Software update: the ORCA program system, version 4.0
     WIRES Comput. Molec. Sci. 2018 8(1), 1-6
     doi.org/10.1002/wcms.1327
  6. Neese, F.; Wennmohs, F.; Becker, U.; Riplinger, C.
     The ORCA quantum chemistry program package
     J. Chem. Phys. 2020 152(22), 224108
     doi.org/10.1063/5.0004608
  7. Neese, F.
     Software update: The ORCA program system—Version 5.0
     WIRES Comput. Molec. Sci. 2022 12(1), e1606
     doi.org/10.1002/wcms.1606

List of optional additional citations

  1. Neese, F.
     Approximate second-order SCF convergence for spin unrestricted wavefunctions
     Chem. Phys. Lett. 2000 325(1-3), 93-98
     doi.org/10.1016/s0009-2614(00)00662-x

Timings for individual modules:

Sum of individual times          ...      108.272 sec (=   1.805 min)
Startup calculation              ...        2.943 sec (=   0.049 min)   2.7 %
SCF iterations                   ...       72.416 sec (=   1.207 min)  66.9 %
SCF Response                     ...       32.494 sec (=   0.542 min)  30.0 %
Property calculations            ...        0.419 sec (=   0.007 min)   0.4 %
                             ****ORCA TERMINATED NORMALLY****
TOTAL RUN TIME: 0 days 0 hours 1 minutes 48 seconds 747 msec
