[Molden Format]
[Title]
 Molden file created by orca_2mkl for BaseName=/kaggle/working/Bta-2/Bta_InterFrag

[Atoms] AU
O    1   8          5.8738697571        -2.0676400700         0.3650440665 
O    2   8          4.7377815232         1.6958270045        -1.2625090225 
N    3   7         -0.2111353215         2.9887814048         1.5279531834 
C    4   6         -3.2545014656        -0.2494136141        -0.1084154780 
C    5   6         -0.5237130316         0.8416500050        -0.2243331688 
C    6   6         -3.6031975113        -2.2114255521        -2.2273597228 
C    7   6         -3.8176511919        -1.4896163093         2.4584562215 
C    8   6         -5.1591318696         1.9051103944        -0.5615434591 
C    9   6          1.5002025551        -1.1277564314         0.4018502624 
C   10   6          4.1424403123        -0.3014434437        -0.2660110787 
H   11   1         -0.2210242583         1.4240295844        -2.2016859036 
H   12   1         -2.3852009879        -3.8638587753        -1.9762037813 
H   13   1         -5.5592719298        -2.8882177388        -2.2556375847 
H   14   1         -3.1906835244        -1.3893190948        -4.0833655836 
H   15   1         -3.4820717353        -0.1721956248         4.0156680346 
H   16   1         -2.6481979534        -3.1675324895         2.7710339315 
H   17   1         -5.7979084357        -2.0885366616         2.5434882283 
H   18   1         -4.7359957320         2.9293986507        -2.3129529783 
H   19   1         -7.0748738632         1.1390437656        -0.7258891615 
H   20   1         -5.1730024594         3.2655091204         0.9962239336 
H   21   1          1.4869858105        -1.5783578486         2.4221923770 
H   22   1          1.1687786063        -2.9099495894        -0.5927333889 
H   23   1         -1.3465073492         4.4230703123         0.9369167686 
H   24   1          1.5805083569         3.6519996887         1.2977183999 
H   25   1          7.5330965459        -1.4227294528        -0.1066126793 
[GTO]
  1 0
s   6 1.0 
     5484.6717000000         0.8317352088
      825.2349500000         1.5308074829
      188.0469600000         2.4771490916
       52.9645000000         3.2562802462
       16.8975700000         2.7928936336
        5.7996353000         0.9549376963
s   3 1.0 
       15.5396160000        -0.6179336976
        3.5999336000        -0.2757210088
        1.0137618000         0.8142076427
p   3 1.0 
       15.5396160000         3.1169455889
        3.5999336000         2.4014372483
        1.0137618000         1.0543605133
s   1 1.0 
        0.2700058000         0.2669561389
p   1 1.0 
        0.2700058000         0.2774319373
d   1 1.0 
        0.8000000000         1.9292013661

  2 0
s   6 1.0 
     5484.6717000000         0.8317352088
      825.2349500000         1.5308074829
      188.0469600000         2.4771490916
       52.9645000000         3.2562802462
       16.8975700000         2.7928936336
        5.7996353000         0.9549376963
s   3 1.0 
       15.5396160000        -0.6179336976
        3.5999336000        -0.2757210088
        1.0137618000         0.8142076427
p   3 1.0 
       15.5396160000         3.1169455889
        3.5999336000         2.4014372483
        1.0137618000         1.0543605133
s   1 1.0 
        0.2700058000         0.2669561389
p   1 1.0 
        0.2700058000         0.2774319373
d   1 1.0 
        0.8000000000         1.9292013661

  3 0
s   6 1.0 
     4173.5110000000         0.6790079572
      627.4579000000         1.2504643275
      142.9021000000         2.0203691378
       40.2343300000         2.6442129843
       12.8202100000         2.2650039968
        4.3904370000         0.7791872309
s   3 1.0 
       11.6263580000        -0.5158738103
        2.7162800000        -0.2550239186
        0.7722180000         0.6727344163
p   3 1.0 
       11.6263580000         2.0680595460
        2.7162800000         1.6100106206
        0.7722180000         0.7644899877
s   1 1.0 
        0.2120313000         0.2226947990
p   1 1.0 
        0.2120313000         0.2050879094
d   1 1.0 
        0.8000000000         1.9292013661

  4 0
s   6 1.0 
     3047.5249000000         0.5363343823
      457.3695100000         0.9894506076
      103.9486900000         1.5972822308
       29.2101550000         2.0791870615
        9.2866630000         1.7741742532
        3.1639270000         0.6125798260
s   3 1.0 
        7.8682724000        -0.3995563516
        1.8812885000        -0.1841552393
        0.5442493000         0.5163903794
p   3 1.0 
        7.8682724000         1.2960827175
        1.8812885000         0.9937536282
        0.5442493000         0.4959527138
s   1 1.0 
        0.1687144000         0.1876178721
p   1 1.0 
        0.1687144000         0.1541275509
d   1 1.0 
        0.8000000000         1.9292013661

  5 0
s   6 1.0 
     3047.5249000000         0.5363343823
      457.3695100000         0.9894506076
      103.9486900000         1.5972822308
       29.2101550000         2.0791870615
        9.2866630000         1.7741742532
        3.1639270000         0.6125798260
s   3 1.0 
        7.8682724000        -0.3995563516
        1.8812885000        -0.1841552393
        0.5442493000         0.5163903794
p   3 1.0 
        7.8682724000         1.2960827175
        1.8812885000         0.9937536282
        0.5442493000         0.4959527138
s   1 1.0 
        0.1687144000         0.1876178721
p   1 1.0 
        0.1687144000         0.1541275509
d   1 1.0 
        0.8000000000         1.9292013661

  6 0
s   6 1.0 
     3047.5249000000         0.5363343823
      457.3695100000         0.9894506076
      103.9486900000         1.5972822308
       29.2101550000         2.0791870615
        9.2866630000         1.7741742532
        3.1639270000         0.6125798260
s   3 1.0 
        7.8682724000        -0.3995563516
        1.8812885000        -0.1841552393
        0.5442493000         0.5163903794
p   3 1.0 
        7.8682724000         1.2960827175
        1.8812885000         0.9937536282
        0.5442493000         0.4959527138
s   1 1.0 
        0.1687144000         0.1876178721
p   1 1.0 
        0.1687144000         0.1541275509
d   1 1.0 
        0.8000000000         1.9292013661

  7 0
s   6 1.0 
     3047.5249000000         0.5363343823
      457.3695100000         0.9894506076
      103.9486900000         1.5972822308
       29.2101550000         2.0791870615
        9.2866630000         1.7741742532
        3.1639270000         0.6125798260
s   3 1.0 
        7.8682724000        -0.3995563516
        1.8812885000        -0.1841552393
        0.5442493000         0.5163903794
p   3 1.0 
        7.8682724000         1.2960827175
        1.8812885000         0.9937536282
        0.5442493000         0.4959527138
s   1 1.0 
        0.1687144000         0.1876178721
p   1 1.0 
        0.1687144000         0.1541275509
d   1 1.0 
        0.8000000000         1.9292013661

  8 0
s   6 1.0 
     3047.5249000000         0.5363343823
      457.3695100000         0.9894506076
      103.9486900000         1.5972822308
       29.2101550000         2.0791870615
        9.2866630000         1.7741742532
        3.1639270000         0.6125798260
s   3 1.0 
        7.8682724000        -0.3995563516
        1.8812885000        -0.1841552393
        0.5442493000         0.5163903794
p   3 1.0 
        7.8682724000         1.2960827175
        1.8812885000         0.9937536282
        0.5442493000         0.4959527138
s   1 1.0 
        0.1687144000         0.1876178721
p   1 1.0 
        0.1687144000         0.1541275509
d   1 1.0 
        0.8000000000         1.9292013661

  9 0
s   6 1.0 
     3047.5249000000         0.5363343823
      457.3695100000         0.9894506076
      103.9486900000         1.5972822308
       29.2101550000         2.0791870615
        9.2866630000         1.7741742532
        3.1639270000         0.6125798260
s   3 1.0 
        7.8682724000        -0.3995563516
        1.8812885000        -0.1841552393
        0.5442493000         0.5163903794
p   3 1.0 
        7.8682724000         1.2960827175
        1.8812885000         0.9937536282
        0.5442493000         0.4959527138
s   1 1.0 
        0.1687144000         0.1876178721
p   1 1.0 
        0.1687144000         0.1541275509
d   1 1.0 
        0.8000000000         1.9292013661

 10 0
s   6 1.0 
     3047.5249000000         0.5363343823
      457.3695100000         0.9894506076
      103.9486900000         1.5972822308
       29.2101550000         2.0791870615
        9.2866630000         1.7741742532
        3.1639270000         0.6125798260
s   3 1.0 
        7.8682724000        -0.3995563516
        1.8812885000        -0.1841552393
        0.5442493000         0.5163903794
p   3 1.0 
        7.8682724000         1.2960827175
        1.8812885000         0.9937536282
        0.5442493000         0.4959527138
s   1 1.0 
        0.1687144000         0.1876178721
p   1 1.0 
        0.1687144000         0.1541275509
d   1 1.0 
        0.8000000000         1.9292013661

 11 0
s   3 1.0 
       18.7311370000         0.2149354183
        2.8253937000         0.3645711272
        0.6401217000         0.4150514277
s   1 1.0 
        0.1612778000         0.1813806839
p   1 1.0 
        1.1000000000         1.6057611426

 12 0
s   3 1.0 
       18.7311370000         0.2149354183
        2.8253937000         0.3645711272
        0.6401217000         0.4150514277
s   1 1.0 
        0.1612778000         0.1813806839
p   1 1.0 
        1.1000000000         1.6057611426

 13 0
s   3 1.0 
       18.7311370000         0.2149354183
        2.8253937000         0.3645711272
        0.6401217000         0.4150514277
s   1 1.0 
        0.1612778000         0.1813806839
p   1 1.0 
        1.1000000000         1.6057611426

 14 0
s   3 1.0 
       18.7311370000         0.2149354183
        2.8253937000         0.3645711272
        0.6401217000         0.4150514277
s   1 1.0 
        0.1612778000         0.1813806839
p   1 1.0 
        1.1000000000         1.6057611426

 15 0
s   3 1.0 
       18.7311370000         0.2149354183
        2.8253937000         0.3645711272
        0.6401217000         0.4150514277
s   1 1.0 
        0.1612778000         0.1813806839
p   1 1.0 
        1.1000000000         1.6057611426

 16 0
s   3 1.0 
       18.7311370000         0.2149354183
        2.8253937000         0.3645711272
        0.6401217000         0.4150514277
s   1 1.0 
        0.1612778000         0.1813806839
p   1 1.0 
        1.1000000000         1.6057611426

 17 0
s   3 1.0 
       18.7311370000         0.2149354183
        2.8253937000         0.3645711272
        0.6401217000         0.4150514277
s   1 1.0 
        0.1612778000         0.1813806839
p   1 1.0 
        1.1000000000         1.6057611426

 18 0
s   3 1.0 
       18.7311370000         0.2149354183
        2.8253937000         0.3645711272
        0.6401217000         0.4150514277
s   1 1.0 
        0.1612778000         0.1813806839
p   1 1.0 
        1.1000000000         1.6057611426

 19 0
s   3 1.0 
       18.7311370000         0.2149354183
        2.8253937000         0.3645711272
        0.6401217000         0.4150514277
s   1 1.0 
        0.1612778000         0.1813806839
p   1 1.0 
        1.1000000000         1.6057611426

 20 0
s   3 1.0 
       18.7311370000         0.2149354183
        2.8253937000         0.3645711272
        0.6401217000         0.4150514277
s   1 1.0 
        0.1612778000         0.1813806839
p   1 1.0 
        1.1000000000         1.6057611426

 21 0
s   3 1.0 
       18.7311370000         0.2149354183
        2.8253937000         0.3645711272
        0.6401217000         0.4150514277
s   1 1.0 
        0.1612778000         0.1813806839
p   1 1.0 
        1.1000000000         1.6057611426

 22 0
s   3 1.0 
       18.7311370000         0.2149354183
        2.8253937000         0.3645711272
        0.6401217000         0.4150514277
s   1 1.0 
        0.1612778000         0.1813806839
p   1 1.0 
        1.1000000000         1.6057611426

 23 0
s   3 1.0 
       18.7311370000         0.2149354183
        2.8253937000         0.3645711272
        0.6401217000         0.4150514277
s   1 1.0 
        0.1612778000         0.1813806839
p   1 1.0 
        1.1000000000         1.6057611426

 24 0
s   3 1.0 
       18.7311370000         0.2149354183
        2.8253937000         0.3645711272
        0.6401217000         0.4150514277
s   1 1.0 
        0.1612778000         0.1813806839
p   1 1.0 
        1.1000000000         1.6057611426

 25 0
s   3 1.0 
       18.7311370000         0.2149354183
        2.8253937000         0.3645711272
        0.6401217000         0.4150514277
s   1 1.0 
        0.1612778000         0.1813806839
p   1 1.0 
        1.1000000000         1.6057611426

[5D]
[7F]
[9G]
[MO]
 Sym=     1a
 Ene= -1.91918324795491E+01
 Spin= Alpha
 Occup= 2.000000
  1       0.995095207884
  2       0.030205179585
  3       0.000362748876
  4       0.001799659850
  5      -0.000871892158
  6      -0.020994934472
  7       0.004299707251
  8      -0.004966166193
  9       0.001839585308
 10       0.000002512547
 11      -0.000494758132
 12       0.000171599380
 13       0.000558970044
 14       0.000949475901
 15      -0.000530610290
 16      -0.000513635624
 17       0.000098469584
 18       0.000096158226
 19      -0.000039655506
 20       0.002326954114
 21      -0.002112189848
 22      -0.000006965849
 23       0.000183533182
 24      -0.000105075428
 25      -0.000224723009
 26      -0.000020251658
 27       0.000266056735
 28       0.000390748626
 29       0.000016984117
 30       0.000139286357
 31      -0.000024668116
 32       0.000044156348
 33       0.000001997813
 34      -0.001063256692
 35      -0.000403109969
 36       0.000015584961
 37       0.000395247184
 38      -0.000036282237
 39       0.000068158025
 40       0.000008259150
 41       0.000032223986
 42       0.000119871482
 43      -0.000044622141
 44      -0.000337397748
 45       0.000093288455
 46      -0.000042234109
 47       0.000015412580
 48       0.002786223954
 49       0.001034542444
 50       0.001063657978
 51      -0.000281032082
 52      -0.000064996335
 53      -0.000002856913
 54      -0.000003533800
 55       0.000049590516
 56       0.000069384680
 57      -0.000047989079
 58      -0.000509074817
 59      -0.000421851537
 60       0.000038096419
 61       0.000034120492
 62      -0.000011761105
 63       0.003639581061
 64       0.000764545745
 65      -0.000133480644
 66      -0.000001301275
 67       0.000005752798
 68      -0.000023658983
 69      -0.000014205590
 70      -0.000103396539
 71       0.000003686784
 72       0.000024063371
 73      -0.000000224251
 74      -0.000025522557
 75      -0.000016468786
 76      -0.000281301052
 77      -0.000145247502
 78      -0.000022597793
 79       0.000123559071
 80       0.000017376534
 81      -0.000009281576
 82       0.000007059059
 83       0.000030089589
 84       0.000012783263
 85      -0.000001278372
 86      -0.000027657899
 87      -0.000024053520
 88      -0.000015359975
 89       0.000017252586
 90      -0.000022337499
 91       0.000028534500
 92       0.000030005591
 93      -0.000142257610
 94       0.000022701202
 95       0.000004531397
 96       0.000011726731
 97       0.000019034568
 98       0.000010715991
 99      -0.000004440271
100      -0.000099192912
101      -0.000096918575
102       0.000025148576
103      -0.000013759532
104      -0.000386307933
105       0.000106833552
106       0.000257596820
107       0.000070513540
108      -0.000002652175
109      -0.000005004630
110      -0.000004412441
111      -0.000013344207
112       0.000022816040
113      -0.000025772653
114      -0.000535689866
115      -0.000152476005
116       0.000009354159
117       0.000027121052
118       0.000491697910
119      -0.000442796488
120       0.000461618164
121      -0.000485563149
122       0.000089170863
123      -0.000030427649
124      -0.000099982863
125      -0.000274861195
126       0.000181492315
127       0.000047460076
128       0.000278819054
129       0.000413439134
130      -0.000450826101
131       0.000184011511
132       0.007563150417
133       0.007085423240
134      -0.007719550535
135       0.002831475151
136      -0.000168849000
137      -0.000121317557
138       0.000020707734
139       0.000365659908
140       0.000092349133
141      -0.000235874752
142      -0.000177747513
143      -0.000129721808
144      -0.000041475336
145      -0.000041607987
146       0.000000046710
147       0.000218362311
148       0.000007732131
149       0.000029720525
150      -0.000006873529
151       0.000002100031
152       0.000016124701
153      -0.000002859242
154       0.000013407583
155       0.000008102407
156       0.000019895043
157       0.000120377549
158       0.000009842251
159      -0.000011562899
160       0.000001636239
161       0.000010241651
162       0.000004262588
163      -0.000003511901
164      -0.000007093834
165       0.000014482307
166      -0.000037715169
167       0.000191750227
168      -0.000005417837
169       0.000025894948
170       0.000000069261
171       0.000007010629
172       0.000105439390
173       0.000006354369
174       0.000013257159
175      -0.000012183151
176      -0.000020613126
177       0.000015352451
178      -0.000014544503
179      -0.000001830359
180      -0.000005866879
181       0.000033001373
182       0.000250232714
183       0.000026730821
184      -0.000010088294
185       0.000001360691
186      -0.000006539692
187      -0.000145773485
188      -0.000027207669
189       0.000007200121
190       0.000005013370
191      -0.000055245782
192      -0.000270082900
193      -0.000131380012
194      -0.000045006495
195       0.000076064324
196      -0.000087659848
197      -0.000546064638
198      -0.000150494366
199      -0.000086482934
200       0.000010425656
201       0.000140764962
202       0.000042022315
203       0.000034194526
204      -0.000045355551
205      -0.000019284488
206       0.000090722578
207       0.000395508144
208       0.000066714137
209      -0.000052278793
210      -0.000000363187
211      -0.000502703262
212       0.000448142361
213       0.001466716257
214       0.000861023189
215      -0.000551899382
 Sym=     1a
 Ene= -1.91355544071464E+01
 Spin= Alpha
 Occup= 2.000000
  1      -0.000494158224
  2       0.000469850003
  3      -0.000236920321
  4       0.000028179936
  5       0.000010648017
  6      -0.002450452708
  7       0.002183260749
  8       0.000740919196
  9      -0.000574972009
 10       0.000112759343
 11       0.000064087341
 12      -0.000172008972
 13      -0.000496959666
 14       0.000009452334
 15      -0.995179234343
 16      -0.030528769150
 17       0.000548528576
 18       0.001964655896
 19      -0.000984188526
 20       0.025038968430
 21      -0.001744878204
 22      -0.006473168331
 23       0.003219812081
 24      -0.000058316959
 25      -0.000044625055
 26      -0.000223227589
 27      -0.000241814771
 28       0.000101758032
 29      -0.000023107891
 30      -0.000193585707
 31      -0.000024985215
 32       0.000005831450
 33      -0.000032175593
 34       0.001128189804
 35       0.000283916070
 36      -0.000567629298
 37      -0.000241396741
 38      -0.000055482116
 39      -0.000057871701
 40       0.000082210441
 41       0.000014057353
 42       0.000067964586
 43      -0.000011622978
 44      -0.000021602994
 45       0.000131975641
 46      -0.000100833006
 47      -0.000027922550
 48       0.001293902376
 49      -0.000171994641
 50       0.001136529319
 51       0.000366092185
 52      -0.000008652615
 53       0.000025354391
 54      -0.000006742095
 55       0.000004547912
 56      -0.000024337685
 57       0.000048656519
 58       0.000480335589
 59      -0.000019582376
 60       0.000028349754
 61       0.000036098597
 62      -0.004485630236
 63      -0.000416000234
 64       0.000928084226
 65      -0.001278460368
 66      -0.000034685274
 67      -0.000048378501
 68      -0.000048822954
 69       0.000105475974
 70       0.000056344013
 71      -0.000001899077
 72       0.000036182672
 73       0.000077163194
 74       0.000026443339
 75       0.000030929690
 76       0.000466721659
 77      -0.000281567759
 78      -0.000097464305
 79       0.000177410508
 80       0.000006180236
 81       0.000013438502
 82       0.000001363226
 83       0.000027355569
 84       0.000025907312
 85       0.000003969606
 86       0.000049133635
 87       0.000044610151
 88      -0.000022713720
 89       0.000008012671
 90      -0.000228460370
 91      -0.000168539798
 92      -0.000116238065
 93      -0.000034339449
 94       0.000016190276
 95      -0.000020400694
 96       0.000032274258
 97       0.000034290966
 98       0.000029925097
 99       0.000021487627
100       0.000156550885
101      -0.000028442580
102       0.000035669094
103      -0.000008758255
104      -0.001135534810
105      -0.000441511812
106       0.000295833009
107      -0.000248516600
108       0.000010875921
109      -0.000021738138
110       0.000015376382
111      -0.000011367745
112       0.000039776864
113      -0.000010515009
114       0.000092970970
115       0.000180548367
116       0.000100033640
117      -0.000029426956
118      -0.002552387995
119      -0.004922950651
120       0.002913882223
121      -0.000722185661
122       0.000055680840
123      -0.000128664483
124      -0.000156816068
125      -0.000339722325
126       0.000305023723
127      -0.000307945952
128      -0.000965361479
129      -0.000000460691
130      -0.000036624255
131       0.000029641075
132      -0.006804924120
133      -0.004348816262
134      -0.012262299359
135       0.006154419368
136      -0.000102773045
137      -0.000117238336
138      -0.000524803962
139      -0.000633051975
140       0.000287705316
141       0.000071246058
142       0.000012923776
143       0.000096070517
144      -0.000019393913
145       0.000021658211
146       0.000043672067
147      -0.000167947464
148      -0.000000691486
149       0.000000679038
150      -0.000010259701
151      -0.000060251730
152      -0.000219173665
153      -0.000023773221
154      -0.000003676332
155      -0.000000958268
156       0.000017143725
157       0.000076617168
158       0.000024054530
159      -0.000000543485
160       0.000007270972
161       0.000026204445
162       0.000058608699
163       0.000018317917
164      -0.000003072823
165       0.000007111088
166       0.000018110163
167       0.000059571021
168      -0.000021681081
169       0.000018643792
170      -0.000001088503
171      -0.000023244004
172      -0.000062204133
173      -0.000012238826
174      -0.000000548974
175       0.000002545710
176       0.000055078302
177      -0.000093143743
178       0.000008187265
179       0.000004736781
180      -0.000004408934
181       0.000026347473
182      -0.000005139933
183       0.000007962494
184      -0.000015502854
185       0.000012132113
186       0.000052298866
187       0.000105726649
188       0.000007590517
189      -0.000004281279
190       0.000000744291
191       0.000094983705
192       0.000430229922
193       0.000047329422
194      -0.000192042058
195      -0.000002103616
196       0.000037128838
197       0.000532046607
198       0.000066332961
199      -0.000140745830
200       0.000140983274
201       0.000026930054
202       0.000119937616
203       0.000003901999
204      -0.000014011831
205       0.000031521467
206      -0.000018490043
207      -0.000077015553
208       0.000125814226
209      -0.000037001827
210      -0.000020105434
211      -0.000086975328
212      -0.000060252251
213      -0.000117372622
214       0.000114973186
215      -0.000041299962
 Sym=     1a
 Ene= -1.42969755607213E+01
 Spin= Alpha
 Occup= 2.000000
  1       0.000002314384
  2       0.000054594824
  3      -0.000000773070
  4       0.000015880485
  5      -0.000009726912
  6      -0.000397808561
  7       0.000012247361
  8      -0.000103814903
  9       0.000060627595
 10      -0.000007574637
 11       0.000001730344
 12      -0.000003264484
 13       0.000004344063
 14      -0.000012551905
 15      -0.000002344098
 16       0.000043988153
 17      -0.000059973114
 18       0.000042735072
 19       0.000024899698
 20       0.000539593194
 21       0.000043293043
 22      -0.000354198221
 23      -0.000019122005
 24       0.000041066669
 25       0.000026040247
 26       0.000003933945
 27      -0.000047077534
 28       0.000060316276
 29       0.995182793067
 30       0.033060638372
 31       0.000539312288
 32       0.001108789150
 33      -0.002126564461
 34      -0.022353090162
 35      -0.000007345511
 36       0.002938705399
 37       0.005170936107
 38      -0.000849874506
 39       0.000059154640
 40      -0.000829624925
 41       0.000545766140
 42      -0.000225107811
 43      -0.000018134857
 44      -0.000409749351
 45      -0.000191644111
 46      -0.000242069482
 47      -0.000203591889
 48       0.000160210081
 49       0.000816230288
 50       0.000837087391
 51       0.001905801464
 52      -0.000006830383
 53      -0.000073287887
 54      -0.000072501114
 55       0.000099518145
 56      -0.000095106772
 57      -0.000025940687
 58      -0.000732728853
 59      -0.000072624785
 60       0.000087038024
 61      -0.000017134589
 62       0.007173187503
 63       0.000874189884
 64       0.006405672318
 65       0.002520779203
 66       0.000024297733
 67      -0.000044516729
 68      -0.000336130336
 69      -0.000010338109
 70       0.000052202024
 71      -0.000081319167
 72      -0.000723253646
 73      -0.000122945642
 74      -0.000037584291
 75       0.000010039364
 76       0.002858364347
 77       0.001177070360
 78       0.001200264439
 79       0.000759368224
 80      -0.000008951147
 81       0.000024691870
 82       0.000085925599
 83      -0.000063237591
 84       0.000017418638
 85       0.000046601489
 86       0.000313952858
 87      -0.000045774493
 88      -0.000105697708
 89       0.000030653119
 90      -0.001938713358
 91      -0.000291480459
 92      -0.000507840128
 93       0.000049743676
 94       0.000060048558
 95       0.000029591460
 96       0.000027431002
 97       0.000034886301
 98      -0.000061036979
 99       0.000012068606
100       0.000006872830
101      -0.000028507023
102       0.000002244239
103      -0.000116408347
104       0.000053770616
105      -0.000556555865
106      -0.000130953883
107       0.000011859287
108       0.000014039269
109      -0.000052794278
110       0.000071631554
111      -0.000113417265
112      -0.000008186757
113      -0.000089043067
114      -0.000976823624
115       0.000141860437
116      -0.000396773070
117      -0.000040324970
118       0.002652842205
119      -0.000612189488
120       0.001536610075
121      -0.000533299644
122       0.000018860289
123       0.000084062495
124       0.000062570924
125       0.000082931526
126       0.000022152758
127       0.000038275784
128       0.000245151341
129       0.000013080109
130      -0.000006723922
131      -0.000025353224
132      -0.001589220433
133       0.001018453720
134      -0.000933775724
135       0.000278783128
136       0.000048805249
137       0.000058661049
138       0.000040860224
139      -0.000059270334
140       0.000048888213
141      -0.000648653797
142      -0.000707972755
143      -0.000054862126
144      -0.000263846844
145      -0.000266645535
146      -0.000167529708
147      -0.000372686406
148      -0.000066377560
149      -0.000084499566
150      -0.000022492271
151      -0.000019394911
152       0.000552817184
153       0.000041930965
154      -0.000020466616
155      -0.000022077449
156      -0.000248045756
157      -0.000080691932
158      -0.000052419301
159      -0.000021597570
160      -0.000006455555
161      -0.000062376882
162       0.000826358534
163      -0.000001433185
164      -0.000057090449
165      -0.000045583128
166       0.000128467852
167       0.000015045821
168       0.000010228810
169       0.000011622863
170       0.000002373841
171       0.000087036614
172       0.000068245735
173       0.000022701546
174       0.000019423483
175      -0.000012223936
176       0.000147809362
177      -0.000243184341
178      -0.000015600461
179      -0.000007015429
180      -0.000038719126
181      -0.000018560482
182      -0.000242264624
183       0.000027925783
184      -0.000008683984
185      -0.000010472804
186      -0.000044925525
187      -0.000185958369
188       0.000000411823
189       0.000036889576
190       0.000006761067
191      -0.000230900143
192       0.000251510434
193       0.000045862541
194      -0.000142742375
195      -0.000047568743
196      -0.000054185893
197       0.000514728804
198      -0.000008868584
199       0.000025752346
200       0.000050441160
201      -0.000725442796
202       0.002368911713
203      -0.001151351500
204       0.001363112228
205      -0.000856913935
206      -0.000716372150
207       0.002661123800
208       0.001786891550
209       0.000549335407
210      -0.000492008089
211       0.000038859285
212      -0.000099083817
213       0.000005349598
214      -0.000015873184
215       0.000007528414
 Sym=     1a
 Ene= -1.03174880537698E+01
 Spin= Alpha
 Occup= 2.000000
  1      -0.000157460533
  2      -0.001361094242
  3      -0.000370088695
  4       0.000249191891
  5      -0.000066315248
  6       0.005454438338
  7      -0.001562389312
  8       0.004175770985
  9      -0.001797148232
 10      -0.001092663539
 11       0.000539990630
 12      -0.000950102512
 13      -0.000158496331
 14      -0.001647289520
 15      -0.000003549653
 16      -0.001031980312
 17      -0.000384439452
 18      -0.000864302170
 19       0.000416369984
 20       0.007939798010
 21       0.000394296672
 22      -0.004865627321
 23       0.002319400804
 24      -0.000532664920
 25      -0.000277971316
 26      -0.001383054378
 27      -0.001257549302
 28       0.000469676326
 29      -0.000018942826
 30      -0.000121053797