[Molden Format]
[Title]
 Molden file created by orca_2mkl for BaseName=/kaggle/working/Gal-2/Gal_InterFrag

[Atoms] AU
O    1   8          1.4937056767         1.8036982414        -0.5549766607 
O    2   8          0.6166762190        -3.2235760975        -2.4425012637 
O    3   8         -3.9113286958        -3.7550936980         0.3099679983 
O    4   8         -5.2983177583         1.4193827478         0.8689641065 
O    5   8         -1.5297616513         4.8767671009        -1.0629917373 
O    6   8          6.5967712616         1.1934886652         0.7362732066 
C    7   6          0.4908317968        -2.5854930608         0.1768197846 
C    8   6         -2.1816661449        -1.8125723953         0.9913919038 
C    9   6          2.2915102559        -0.4103578094         0.8180189797 
C   10   6         -2.9315680563         0.7097263338        -0.1959305850 
C   11   6         -0.9060537613         2.7048557223         0.3103289360 
C   12   6          5.0226256126        -0.8892956700         0.0722555685 
H   13   1          1.0436541698        -4.2854925806         1.2170856755 
H   14   1         -2.1578971696        -1.5562593912         3.0563787983 
H   15   1          2.2028632029        -0.0218716903         2.8568331672 
H   16   1         -3.0913122756         0.4767344399        -2.2535418784 
H   17   1         -0.7804909084         3.1028925174         2.3476218940 
H   18   1          5.1289000309        -1.2900291042        -1.9602374852 
H   19   1          5.7256660954        -2.5425754906         1.0946843343 
H   20   1          0.6310759321        -1.6457643798        -3.3759503848 
H   21   1         -5.5822339921        -3.1035293551         0.6806510075 
H   22   1         -5.8797675924         2.8960279769        -0.0423355346 
H   23   1         -0.5742291906         6.2788153909        -0.3747610382 
H   24   1          5.8206153850         2.6712828478        -0.0176783880 
[GTO]
  1 0
s   6 1.0 
     5484.6717000000         0.8317352088
      825.2349500000         1.5308074829
      188.0469600000         2.4771490916
       52.9645000000         3.2562802462
       16.8975700000         2.7928936336
        5.7996353000         0.9549376963
s   3 1.0 
       15.5396160000        -0.6179336976
        3.5999336000        -0.2757210088
        1.0137618000         0.8142076427
p   3 1.0 
       15.5396160000         3.1169455889
        3.5999336000         2.4014372483
        1.0137618000         1.0543605133
s   1 1.0 
        0.2700058000         0.2669561389
p   1 1.0 
        0.2700058000         0.2774319373
d   1 1.0 
        0.8000000000         1.9292013661

  2 0
s   6 1.0 
     5484.6717000000         0.8317352088
      825.2349500000         1.5308074829
      188.0469600000         2.4771490916
       52.9645000000         3.2562802462
       16.8975700000         2.7928936336
        5.7996353000         0.9549376963
s   3 1.0 
       15.5396160000        -0.6179336976
        3.5999336000        -0.2757210088
        1.0137618000         0.8142076427
p   3 1.0 
       15.5396160000         3.1169455889
        3.5999336000         2.4014372483
        1.0137618000         1.0543605133
s   1 1.0 
        0.2700058000         0.2669561389
p   1 1.0 
        0.2700058000         0.2774319373
d   1 1.0 
        0.8000000000         1.9292013661

  3 0
s   6 1.0 
     5484.6717000000         0.8317352088
      825.2349500000         1.5308074829
      188.0469600000         2.4771490916
       52.9645000000         3.2562802462
       16.8975700000         2.7928936336
        5.7996353000         0.9549376963
s   3 1.0 
       15.5396160000        -0.6179336976
        3.5999336000        -0.2757210088
        1.0137618000         0.8142076427
p   3 1.0 
       15.5396160000         3.1169455889
        3.5999336000         2.4014372483
        1.0137618000         1.0543605133
s   1 1.0 
        0.2700058000         0.2669561389
p   1 1.0 
        0.2700058000         0.2774319373
d   1 1.0 
        0.8000000000         1.9292013661

  4 0
s   6 1.0 
     5484.6717000000         0.8317352088
      825.2349500000         1.5308074829
      188.0469600000         2.4771490916
       52.9645000000         3.2562802462
       16.8975700000         2.7928936336
        5.7996353000         0.9549376963
s   3 1.0 
       15.5396160000        -0.6179336976
        3.5999336000        -0.2757210088
        1.0137618000         0.8142076427
p   3 1.0 
       15.5396160000         3.1169455889
        3.5999336000         2.4014372483
        1.0137618000         1.0543605133
s   1 1.0 
        0.2700058000         0.2669561389
p   1 1.0 
        0.2700058000         0.2774319373
d   1 1.0 
        0.8000000000         1.9292013661

  5 0
s   6 1.0 
     5484.6717000000         0.8317352088
      825.2349500000         1.5308074829
      188.0469600000         2.4771490916
       52.9645000000         3.2562802462
       16.8975700000         2.7928936336
        5.7996353000         0.9549376963
s   3 1.0 
       15.5396160000        -0.6179336976
        3.5999336000        -0.2757210088
        1.0137618000         0.8142076427
p   3 1.0 
       15.5396160000         3.1169455889
        3.5999336000         2.4014372483
        1.0137618000         1.0543605133
s   1 1.0 
        0.2700058000         0.2669561389
p   1 1.0 
        0.2700058000         0.2774319373
d   1 1.0 
        0.8000000000         1.9292013661

  6 0
s   6 1.0 
     5484.6717000000         0.8317352088
      825.2349500000         1.5308074829
      188.0469600000         2.4771490916
       52.9645000000         3.2562802462
       16.8975700000         2.7928936336
        5.7996353000         0.9549376963
s   3 1.0 
       15.5396160000        -0.6179336976
        3.5999336000        -0.2757210088
        1.0137618000         0.8142076427
p   3 1.0 
       15.5396160000         3.1169455889
        3.5999336000         2.4014372483
        1.0137618000         1.0543605133
s   1 1.0 
        0.2700058000         0.2669561389
p   1 1.0 
        0.2700058000         0.2774319373
d   1 1.0 
        0.8000000000         1.9292013661

  7 0
s   6 1.0 
     3047.5249000000         0.5363343823
      457.3695100000         0.9894506076
      103.9486900000         1.5972822308
       29.2101550000         2.0791870615
        9.2866630000         1.7741742532
        3.1639270000         0.6125798260
s   3 1.0 
        7.8682724000        -0.3995563516
        1.8812885000        -0.1841552393
        0.5442493000         0.5163903794
p   3 1.0 
        7.8682724000         1.2960827175
        1.8812885000         0.9937536282
        0.5442493000         0.4959527138
s   1 1.0 
        0.1687144000         0.1876178721
p   1 1.0 
        0.1687144000         0.1541275509
d   1 1.0 
        0.8000000000         1.9292013661

  8 0
s   6 1.0 
     3047.5249000000         0.5363343823
      457.3695100000         0.9894506076
      103.9486900000         1.5972822308
       29.2101550000         2.0791870615
        9.2866630000         1.7741742532
        3.1639270000         0.6125798260
s   3 1.0 
        7.8682724000        -0.3995563516
        1.8812885000        -0.1841552393
        0.5442493000         0.5163903794
p   3 1.0 
        7.8682724000         1.2960827175
        1.8812885000         0.9937536282
        0.5442493000         0.4959527138
s   1 1.0 
        0.1687144000         0.1876178721
p   1 1.0 
        0.1687144000         0.1541275509
d   1 1.0 
        0.8000000000         1.9292013661

  9 0
s   6 1.0 
     3047.5249000000         0.5363343823
      457.3695100000         0.9894506076
      103.9486900000         1.5972822308
       29.2101550000         2.0791870615
        9.2866630000         1.7741742532
        3.1639270000         0.6125798260
s   3 1.0 
        7.8682724000        -0.3995563516
        1.8812885000        -0.1841552393
        0.5442493000         0.5163903794
p   3 1.0 
        7.8682724000         1.2960827175
        1.8812885000         0.9937536282
        0.5442493000         0.4959527138
s   1 1.0 
        0.1687144000         0.1876178721
p   1 1.0 
        0.1687144000         0.1541275509
d   1 1.0 
        0.8000000000         1.9292013661

 10 0
s   6 1.0 
     3047.5249000000         0.5363343823
      457.3695100000         0.9894506076
      103.9486900000         1.5972822308
       29.2101550000         2.0791870615
        9.2866630000         1.7741742532
        3.1639270000         0.6125798260
s   3 1.0 
        7.8682724000        -0.3995563516
        1.8812885000        -0.1841552393
        0.5442493000         0.5163903794
p   3 1.0 
        7.8682724000         1.2960827175
        1.8812885000         0.9937536282
        0.5442493000         0.4959527138
s   1 1.0 
        0.1687144000         0.1876178721
p   1 1.0 
        0.1687144000         0.1541275509
d   1 1.0 
        0.8000000000         1.9292013661

 11 0
s   6 1.0 
     3047.5249000000         0.5363343823
      457.3695100000         0.9894506076
      103.9486900000         1.5972822308
       29.2101550000         2.0791870615
        9.2866630000         1.7741742532
        3.1639270000         0.6125798260
s   3 1.0 
        7.8682724000        -0.3995563516
        1.8812885000        -0.1841552393
        0.5442493000         0.5163903794
p   3 1.0 
        7.8682724000         1.2960827175
        1.8812885000         0.9937536282
        0.5442493000         0.4959527138
s   1 1.0 
        0.1687144000         0.1876178721
p   1 1.0 
        0.1687144000         0.1541275509
d   1 1.0 
        0.8000000000         1.9292013661

 12 0
s   6 1.0 
     3047.5249000000         0.5363343823
      457.3695100000         0.9894506076
      103.9486900000         1.5972822308
       29.2101550000         2.0791870615
        9.2866630000         1.7741742532
        3.1639270000         0.6125798260
s   3 1.0 
        7.8682724000        -0.3995563516
        1.8812885000        -0.1841552393
        0.5442493000         0.5163903794
p   3 1.0 
        7.8682724000         1.2960827175
        1.8812885000         0.9937536282
        0.5442493000         0.4959527138
s   1 1.0 
        0.1687144000         0.1876178721
p   1 1.0 
        0.1687144000         0.1541275509
d   1 1.0 
        0.8000000000         1.9292013661

 13 0
s   3 1.0 
       18.7311370000         0.2149354183
        2.8253937000         0.3645711272
        0.6401217000         0.4150514277
s   1 1.0 
        0.1612778000         0.1813806839
p   1 1.0 
        1.1000000000         1.6057611426

 14 0
s   3 1.0 
       18.7311370000         0.2149354183
        2.8253937000         0.3645711272
        0.6401217000         0.4150514277
s   1 1.0 
        0.1612778000         0.1813806839
p   1 1.0 
        1.1000000000         1.6057611426

 15 0
s   3 1.0 
       18.7311370000         0.2149354183
        2.8253937000         0.3645711272
        0.6401217000         0.4150514277
s   1 1.0 
        0.1612778000         0.1813806839
p   1 1.0 
        1.1000000000         1.6057611426

 16 0
s   3 1.0 
       18.7311370000         0.2149354183
        2.8253937000         0.3645711272
        0.6401217000         0.4150514277
s   1 1.0 
        0.1612778000         0.1813806839
p   1 1.0 
        1.1000000000         1.6057611426

 17 0
s   3 1.0 
       18.7311370000         0.2149354183
        2.8253937000         0.3645711272
        0.6401217000         0.4150514277
s   1 1.0 
        0.1612778000         0.1813806839
p   1 1.0 
        1.1000000000         1.6057611426

 18 0
s   3 1.0 
       18.7311370000         0.2149354183
        2.8253937000         0.3645711272
        0.6401217000         0.4150514277
s   1 1.0 
        0.1612778000         0.1813806839
p   1 1.0 
        1.1000000000         1.6057611426

 19 0
s   3 1.0 
       18.7311370000         0.2149354183
        2.8253937000         0.3645711272
        0.6401217000         0.4150514277
s   1 1.0 
        0.1612778000         0.1813806839
p   1 1.0 
        1.1000000000         1.6057611426

 20 0
s   3 1.0 
       18.7311370000         0.2149354183
        2.8253937000         0.3645711272
        0.6401217000         0.4150514277
s   1 1.0 
        0.1612778000         0.1813806839
p   1 1.0 
        1.1000000000         1.6057611426

 21 0
s   3 1.0 
       18.7311370000         0.2149354183
        2.8253937000         0.3645711272
        0.6401217000         0.4150514277
s   1 1.0 
        0.1612778000         0.1813806839
p   1 1.0 
        1.1000000000         1.6057611426

 22 0
s   3 1.0 
       18.7311370000         0.2149354183
        2.8253937000         0.3645711272
        0.6401217000         0.4150514277
s   1 1.0 
        0.1612778000         0.1813806839
p   1 1.0 
        1.1000000000         1.6057611426

 23 0
s   3 1.0 
       18.7311370000         0.2149354183
        2.8253937000         0.3645711272
        0.6401217000         0.4150514277
s   1 1.0 
        0.1612778000         0.1813806839
p   1 1.0 
        1.1000000000         1.6057611426

 24 0
s   3 1.0 
       18.7311370000         0.2149354183
        2.8253937000         0.3645711272
        0.6401217000         0.4150514277
s   1 1.0 
        0.1612778000         0.1813806839
p   1 1.0 
        1.1000000000         1.6057611426

[5D]
[7F]
[9G]
[MO]
 Sym=     1a
 Ene= -1.91741384806942E+01
 Spin= Alpha
 Occup= 2.000000
  1      -0.001479363413
  2      -0.000545999446
  3      -0.000027764066
  4       0.000022065221
  5       0.000039359039
  6       0.003593419210
  7      -0.001358640144
  8       0.000713544088
  9      -0.000191003307
 10      -0.000093873685
 11       0.000136222947
 12       0.000054882554
 13       0.000054404045
 14      -0.000133849087
 15      -0.000092142757
 16      -0.000065796512
 17      -0.000020796385
 18       0.000036629456
 19      -0.000035313901
 20       0.000169080429
 21       0.000084514674
 22      -0.000305111255
 23       0.000262703589
 24       0.000014430716
 25       0.000011135120
 26       0.000028108521
 27       0.000057555707
 28       0.000005556624
 29      -0.000037325515
 30      -0.000035402156
 31      -0.000008252891
 32      -0.000037049607
 33       0.000053095779
 34      -0.000059162758
 35       0.000173957243
 36       0.000202786186
 37      -0.000347632906
 38      -0.000064823813
 39      -0.000036701673
 40      -0.000052627058
 41      -0.000017646999
 42       0.000035057007
 43      -0.001245453267
 44      -0.000588511111
 45      -0.000082887885
 46      -0.000011767593
 47      -0.000023524166
 48       0.002094248524
 49       0.000719049456
 50       0.000171979415
 51      -0.000285559395
 52      -0.000119351459
 53      -0.000047831004
 54      -0.000065282739
 55       0.000007053964
 56       0.000038858078
 57      -0.995108733636
 58      -0.030203421167
 59      -0.001322193616
 60       0.000051899014
 61      -0.001580022541
 62       0.020804373628
 63       0.001918830516
 64      -0.006080695753
 65       0.003658969780
 66       0.000135991409
 67      -0.000013870209
 68      -0.001036494977
 69      -0.000280452284
 70      -0.000897814791
 71      -0.000001204886
 72      -0.000000384016
 73       0.000005938447
 74       0.000013652667
 75      -0.000013895069
 76       0.000051484921
 77      -0.000016249984
 78      -0.000209344645
 79       0.000102553265
 80      -0.000010229173
 81      -0.000006722802
 82       0.000000656834
 83      -0.000014670106
 84       0.000032266232
 85      -0.000051805207
 86      -0.000324228722
 87      -0.000069113598
 88       0.000113514968
 89      -0.000012814259
 90       0.003817146073
 91      -0.000880564429
 92       0.001448178413
 93       0.001139925892
 94      -0.000052798116
 95      -0.000011449393
 96       0.000053061387
 97      -0.000037452586
 98      -0.000020448623
 99       0.000100043165
100       0.000861869110
101       0.000059370496
102       0.000124306532
103      -0.000012562055
104      -0.004072264215
105      -0.001961046678
106      -0.001141013515
107       0.001269858283
108       0.000025645467
109       0.000018478843
110       0.000095336329
111       0.000052080473
112      -0.000010419543
113       0.000076124491
114       0.000632095092
115      -0.000188931538
116       0.000117410684
117       0.000035696003
118      -0.002180609736
119       0.002849835738
120      -0.000448736598
121      -0.000071229087
122       0.000046820810
123      -0.000071180827
124       0.000044742407
125       0.000082321872
126       0.000051542979
127      -0.000044975527
128      -0.000113040795
129       0.000152215467
130       0.000290870273
131       0.000055699900
132       0.003789594772
133       0.002793097646
134       0.000358382036
135      -0.001462960523
136      -0.000103274069
137      -0.000035559662
138      -0.000084979021
139      -0.000234919403
140       0.000249900761
141       0.000186159087
142       0.001052697011
143      -0.000109635956
144      -0.000650366374
145       0.000171362816
146      -0.014621897701
147       0.002202890683
148      -0.005610007214
149       0.006850628276
150       0.000125473293
151       0.000057514116
152       0.000204562847
153       0.000214041356
154       0.000077129626
155       0.000008281933
156       0.000028790730
157       0.000060245434
158      -0.000025715798
159       0.000013461666
160      -0.001359150886
161       0.000290796103
162      -0.000029279886
163      -0.000650511014
164       0.000015880630
165       0.000029785849
166      -0.000009060387
167      -0.000017942853
168      -0.000022908969
169      -0.000089458674
170      -0.000214612682
171       0.000038885419
172      -0.000083998941
173      -0.000078694216
174       0.000208402486
175      -0.000364398598
176       0.000080368019
177       0.000075578310
178       0.000021834054
179       0.000259456008
180      -0.000036645409
181      -0.000096500383
182      -0.000008796441
183       0.000022554583
184      -0.000235720105
185      -0.000325319295
186      -0.000020640489
187       0.000170307569
188       0.000036365180
189       0.000230839241
190      -0.000007061095
191      -0.000141037895
192       0.000449383018
193      -0.000268143288
194      -0.000035872218
195      -0.000174412442
196       0.000000797191
197      -0.000015266385
198      -0.000003252581
199       0.000066381273
200       0.000205900666
201       0.000017112604
202       0.000016610884
203       0.000012902254
204       0.000086913137
205       0.000200882728
206       0.000024438610
207      -0.000063870649
208       0.000011421498
209      -0.000021247548
210       0.000123209072
211       0.000010661401
212      -0.000003270307
213       0.000001281937
214      -0.000145497642
215      -0.000181198063
216      -0.000050654499
217       0.000096953115
218      -0.000067253117
219       0.000650015237
220      -0.000283647535
221      -0.001101859889
222      -0.001271989058
223      -0.000913049837
224       0.000025976452
225       0.000175567080
226       0.000011465784
227      -0.000027006934
228       0.000011169249
 Sym=     1a
 Ene= -1.91686578425754E+01
 Spin= Alpha
 Occup= 2.000000
  1       0.995228092955
  2       0.031087987828
  3      -0.001007264008
  4      -0.000768949268
  5       0.001259254908
  6      -0.024969701847
  7       0.004002447987
  8       0.002270258284
  9      -0.004092033178
 10       0.000323354965
 11       0.000201837178
 12       0.000409000243
 13      -0.000100826218
 14       0.000551520145
 15       0.000457695798
 16       0.000408684641
 17       0.000033153801
 18       0.000046341417
 19       0.000012562963
 20      -0.001354571327
 21      -0.000101318921
 22      -0.000993305766
 23      -0.000125950549
 24       0.000037992571
 25      -0.000018431562
 26      -0.000080390571
 27       0.000180327172
 28      -0.000066531890
 29       0.000263569450
 30       0.000224493815
 31       0.000023569328
 32       0.000028445367
 33       0.000002952946
 34      -0.001044352775
 35      -0.000222154267
 36      -0.000332284148
 37      -0.000044555200
 38       0.000032479123
 39       0.000011181238
 40       0.000019078978
 41       0.000008850574
 42      -0.000005627187
 43      -0.000568354145
 44      -0.000128846384
 45      -0.000085547577
 46      -0.000060815752
 47       0.000004594502
 48      -0.000113606737
 49       0.000248465976
 50       0.000428372847
 51      -0.000109307226
 52      -0.000001757231
 53      -0.000037997647
 54      -0.000039347328
 55       0.000038334274
 56       0.000021750846
 57      -0.001379742601
 58       0.000450113090
 59       0.000020703716
 60      -0.000022968065
 61      -0.000103940394
 62      -0.002882909170
 63      -0.001055753709
 64       0.001707926042
 65      -0.000030370124
 66       0.000140545524
 67      -0.000143483761
 68       0.000040374429
 69       0.000215916902
 70       0.000182697000
 71       0.000254715564
 72       0.000235193990
 73      -0.000041607033
 74      -0.000024321465
 75       0.000073286327
 76      -0.000537070477
 77       0.000335304943
 78      -0.000035430850
 79      -0.000245012673
 80       0.000114692923
 81       0.000021882340
 82       0.000048332587
 83      -0.000071424619
 84       0.000023372716
 85      -0.000106880319
 86      -0.001213451414
 87      -0.000207801084
 88      -0.000548527477
 89      -0.000042021860
 90       0.003425358547
 91      -0.000205618342
 92       0.002321804922
 93       0.000413567793
 94       0.000098686457
 95       0.000009655397
 96       0.000077943214
 97       0.000128744077
 98      -0.000077749382
 99       0.000119917048
100       0.000929194762
101      -0.000013934771
102       0.000064333112
103       0.000199021406
104      -0.004349591762
105      -0.001984591632
106      -0.002142297863
107      -0.000903936038
108       0.000011166872
109       0.000079714835
110       0.000057399731
111      -0.000084057125
112      -0.000050269069
113      -0.000128117789
114      -0.000887389910
115      -0.000245840969
116       0.000857209686
117      -0.000167652071
118       0.006913030573
119      -0.000869386519
120       0.004373099759
121      -0.002306703168
122      -0.000083999831
123       0.000085970599
124      -0.000065345229
125      -0.000071806346
126      -0.000325146337
127       0.000005528233
128      -0.000311148719
129      -0.000232762397
130      -0.000270149412
131      -0.000093867002
132      -0.000840846616
133      -0.001002858560
134      -0.001233012933
135       0.001590352537
136       0.000097843492
137       0.000072241207
138       0.000007592047
139      -0.000093986914
140      -0.000202261466
141      -0.000217767928
142      -0.001244632638
143       0.000851105187
144      -0.000150312986
145      -0.000159291139
146       0.012694447880
147       0.003930227318
148      -0.001855778809
149      -0.003626042088
150      -0.000131346636
151       0.000088036353
152      -0.000100752197
153      -0.000026136899
154      -0.000291454656
155       0.000023235967
156      -0.000033200700
157       0.000282969580
158      -0.000082602029
159      -0.000074616105
160      -0.001269033448
161       0.000492265422
162      -0.000566625859
163       0.000854850033
164       0.000040267378
165      -0.000041284409
166      -0.000069514872
167      -0.000110777577
168       0.000125176141
169      -0.000044146992
170       0.000895822814
171      -0.000000131118
172       0.000053413514
173      -0.000099059393
174       0.000464794621
175       0.000970921955
176       0.000112474930
177       0.000111142763
178      -0.000066677812
179      -0.000471869947
180      -0.000671087257
181       0.000107057133
182      -0.000287931222
183       0.000206349875
184       0.000188653147
185       0.000080472535
186      -0.000132676545
187      -0.000031407475
188      -0.000049025001
189      -0.000530456087
190      -0.000328507951
191      -0.000294130117
192       0.000146558062
193       0.000144552760
194       0.000149452567
195       0.000272495279
196       0.000092081027
197      -0.000006738557
198       0.000008174492
199      -0.000102880132
200       0.000125624333
201      -0.000099426222
202       0.000005167366
203      -0.000012421085
204       0.000217608887
205       0.000489521643
206      -0.000006830772
207      -0.000157768860
208       0.000069144225
209       0.000067682073
210      -0.000262957602
211      -0.000005520878
212      -0.000040268498
213      -0.000008701984
214      -0.000174819650
215       0.000251542830
216       0.000013679184
217      -0.000019749973
218      -0.000023176672
219       0.000074149069
220      -0.000513329695
221      -0.000030247962
222       0.000052420951
223      -0.000046483983
224       0.000006602300
225       0.000263367783
226       0.000024752253
227      -0.000070252891
228       0.000053385448
 Sym=     1a
 Ene= -1.91579696833668E+01
 Spin= Alpha
 Occup= 2.000000
  1      -0.000550085003
  2       0.000155869917
  3      -0.000048674818
  4      -0.000056817767
  5       0.000027850550
  6      -0.000598032839
  7      -0.000056677712
  8       0.000770848431
  9      -0.000333164161
 10       0.000038762780
 11       0.000091345804
 12      -0.000023434936
 13      -0.000071632559
 14       0.000030170517
 15      -0.000326553390
 16      -0.000263496065
 17      -0.000033906947
 18       0.000021451603
 19       0.000045814292
 20       0.001796464912
 21      -0.000044946909
 22       0.000655997564
 23       0.000264787752
 24       0.000007099019
 25      -0.000029321092
 26       0.000060616460
 27      -0.000069967654
 28       0.000007439633
 29      -0.000763381768
 30      -0.000502802725
 31      -0.000032015124
 32      -0.000052425015
 33       0.000040239493
 34       0.001629179784
 35      -0.000086031289
 36       0.000629475836
 37       0.000064313845
 38      -0.000138120591
 39      -0.000008903124
 40       0.000003958785
 41      -0.000042783824
 42      -0.000080329816
 43      -0.995112100360
 44      -0.030146002928
 45      -0.000919398926
 46      -0.000986444886
 47       0.001566722816
 48       0.020253367447
 49       0.006254681958
 50      -0.001608304277
 51      -0.002848593701
 52      -0.000158545419
 53      -0.000815359052
 54       0.000636661647
 55       0.000971044466
 56       0.000004500786
 57       0.001172889194
 58      -0.000539629103
 59       0.000069497960
 60       0.000130838936
 61       0.000043800838
 62       0.002208933855
 63      -0.000151913353
 64      -0.001446071813
 65       0.000189283820
 66      -0.000133874473
 67      -0.000027614575
 68      -0.000147787085
 69      -0.000089474252
 70       0.000040083686
 71      -0.000104720374
 72      -0.000076719475
 73       0.000019539913
 74      -0.000007765682
 75      -0.000000997363
 76       0.000333049293
 77      -0.000256076230
 78       0.000018294417
 79      -0.000085100379
 80      -0.000000146350
 81       0.000028131886
 82      -0.000008358950
 83       0.000005140355
 84       0.000015163860
 85       0.000137359286
 86       0.001188835523
 87      -0.000086535571
 88       0.000252441393
 89      -0.000115686197
 90      -0.004885047467
 91       0.000460930858
 92      -0.003272250790
 93       0.001398191081
 94       0.000011789948
 95       0.000075540622
 96      -0.000089023536
 97      -0.000094125369
 98       0.000015153691
 99      -0.000053418144
100      -0.000183216896
101      -0.000163297644
102       0.000248356820
103      -0.000088875743
104       0.004120105040
105       0.000805906483
106       0.002232264199
107      -0.000086995379
108      -0.000091380158
109      -0.000021303330
110       0.000029274542
111      -0.000015106108
112      -0.000256084265
113      -0.000053503111
114      -0.000265836102
115      -0.000283326079
116       0.000033675358
117       0.000074337373
118       0.004185928548
119       0.000822777929
120      -0.000966973668
121      -0.002315822166
122      -0.000042001202
123       0.000071763618
124       0.000004157393
125       0.000065774648
126       0.000058841296
127       0.000198569514
128       0.001248972297
129       0.000677168035
130      -0.000113671026
131      -0.000034671196
132      -0.013099942407
133       0.006726415590
134      -0.001363122730
135      -0.005373737710
136       0.000142319989
137       0.000168091218
138      -0.000119358692
139      -0.000330739000
140       0.000325527093
141       0.000027524578
142       0.000457054640
143      -0.000346747952
144      -0.000230238250
145      -0.000029404910
146      -0.000558882391
147      -0.000280365769
148      -0.001137051052
149       0.002677011299
150      -0.000081786705
151      -0.000147546693
152       0.000040916702
153       0.000314454437
154       0.000185152175
155       0.000049226178
156       0.000321425424
157       0.000097033147
158      -0.000034042198
159      -0.000051325459
160      -0.002830519956
161       0.001218205068
162      -0.000246406692
163       0.000310647301
164       0.000049833903
165      -0.000014116072
166      -0.000002244254
167      -0.000072221999
168       0.000006393050
169      -0.000153352281
170      -0.000974724205
171       0.000009480598
172      -0.000026412645
173       0.000047185577
174      -0.000141600669
175      -0.000111684088
176      -0.000160854456
177       0.000060432263
178      -0.000038757030
179       0.000141972457
180       0.000480915785
181      -0.000022714184
182      -0.000001445098
183      -0.000004206102
184       0.000282082167
185       0.000125346353
186      -0.000476781107
187       0.000141075081
188       0.000197208926
189      -0.000137466902
190      -0.000678897059
191      -0.000155307435
192       0.000009399930
193      -0.000019838995
194       0.000124342684
195       0.000449710545
196      -0.000008054128
197       0.000008707363
198       0.000014415084
199       0.000066407531