
                                 *****************
                                 * O   R   C   A *
                                 *****************

                                            #,                                       
                                            ###                                      
                                            ####                                     
                                            #####                                    
                                            ######                                   
                                           ########,                                 
                                     ,,################,,,,,                         
                               ,,#################################,,                 
                          ,,##########################################,,             
                       ,#########################################, ''#####,          
                    ,#############################################,,   '####,        
                  ,##################################################,,,,####,       
                ,###########''''           ''''###############################       
              ,#####''   ,,,,##########,,,,          '''####'''          '####       
            ,##' ,,,,###########################,,,                        '##       
           ' ,,###''''                  '''############,,,                           
         ,,##''                                '''############,,,,        ,,,,,,###''
      ,#''                                            '''#######################'''  
     '                                                          ''''####''''         
             ,#######,   #######,   ,#######,      ##                                
            ,#'     '#,  ##    ##  ,#'     '#,    #''#        ,####,    ,#,          
            ##       ##  ##   ,#'  ##            #'  '#       #'       ,# #          
            ##       ##  #######   ##           ,######,      #####,      #          
            '#,     ,#'  ##    ##  '#,     ,#' ,#      #,     #,   #      #          
             '#######'   ##     ##  '#######'  #'      '#     '####' #    #          



                #########################################################
                #                        -***-                          #
                #          Department of theory and spectroscopy        #
                #                                                       #
                #                      Frank Neese                      #
                #                                                       #
                #     Directorship, Architecture, Infrastructure        #
                #                    SHARK, DRIVERS                     #
                #        Core code/Algorithms in most modules           #
                #                                                       #
                #        Max Planck Institute fuer Kohlenforschung      #
                #                Kaiser Wilhelm Platz 1                 #
                #                 D-45470 Muelheim/Ruhr                 #
                #                      Germany                          #
                #                                                       #
                #                  All rights reserved                  #
                #                        -***-                          #
                #########################################################


                         Program Version 6.1.1  -  RELEASE   -
                                (GIT: $487d211c$)
                          ($2025-11-21 10:33:24 +0100$)
                                                                         
                                  - NO-DMRG VERSION -                    
                                                                         


 With contributions from (in alphabetic order):
[Max-Planck-Institut fuer Kohlenforschung]                               
  Daniel Aravena         : Magnetic Suceptibility                        
  Michael Atanasov       : Ab Initio Ligand Field Theory (pilot matlab implementation)
  Alexander A. Auer      : GIAO ZORA, VPT2 properties, NMR spectrum      
  Ute Becker             : All parallelization in ORCA, NUMFREQ, NUMCALC 
  Giovanni Bistoni       : ED, misc. LED, open-shell LED, HFLD           
  Dmytro Bykov           : pre 5.0 version of the SCF Hessian            
  Marcos Casanova-Páez   : Triplet and SCS-CIS(D). UHF-(DLPNO)-IP/EA/STEOM-CCSD. UHF-CVS-IP/STEOM-CCSD   
  Vijay G. Chilkuri      : MRCI spin determinant printing, contributions to CSF-ICE 
  Pauline Colinet        : FMM embedding                                 
  Dipayan Datta          : RHF DLPNO-CCSD density                        
  Achintya Kumar Dutta   : EOM-CC, STEOM-CC                              
  Nicolas Foglia         : Exact transition moments, OPA infrastructure, MCD improvements    
  Dmitry Ganyushin       : Spin-Orbit,Spin-Spin,Magnetic field MRCI      
  Miquel Garcia-Rates    : C-PCM and meta-GGA Hessian, CCSD/C-PCM, Gaussian charge scheme 
  Tiago L. C. Gouveia    : GS-ROHF, GS-ROCIS                             
  Yang Guo               : DLPNO-NEVPT2, F12-NEVPT2, CIM, IAO-localization        
  Andreas Hansen         : Spin unrestricted coupled pair/coupled cluster methods 
  Ingolf Harden          : AUTO-CI MPn and infrastructure                
  Benjamin Helmich-Paris : MC-RPA, TRAH-(SCF,CASSCF), AVAS, COSX integrals, SCF dyn. polar., MC-PDFT, srDFT 
  Lee Huntington         : MR-EOM, pCC                                   
  Robert Izsak           : Overlap fitted RIJCOSX, COSX-SCS-MP3, EOM     
  Riya Kayal             : Wick's Theorem for AUTO-CI, AUTO-CI UHF-CCSDT 
  Emily Kempfer          : AUTO-CI RHF CISDT and CCSDT, approximate NEVPT4
  Christian Kollmar      : KDIIS, OOCD, Brueckner-CCSD(T), CCSD density, CASPT2, CASPT2-K, improved NEVPT2 
  Axel Koslowski         : Symmetry handling                             
  Simone Kossmann        : meta-GGA functionals, TD-DFT gradient, OOMP2, (MP2 Hessian; deprecated post 5.0) 
  Lucas Lang             : DCDCAS, Hyperfine gauge corrections, ICE-SOC+SSC
  Marvin Lechner         : AUTO-CI (C++ implementation), FIC-MRCC        
  Spencer Leger          : CASSCF response                               
  Dagmar Lenk            : GEPOL surface, SMD, ORCA-2-JSON               
  Dimitrios Liakos       : Extrapolation schemes; Compound Job, Property file
  Dimitrios Manganas     : Further ROCIS development; embedding schemes. LFT, Crystal Embedding 
  Dimitrios Pantazis     : SARC Basis sets                               
  Anastasios Papadopoulos: AUTO-CI, single reference methods and gradients 
  Taras Petrenko         : pre 6.0 DFT Hessian and TD-DFT gradient,  ECA, NRVS 
  Petra Pikulova         : Analytic Raman intensities                    
  Peter Pinski           : DLPNO-MP2, DLPNO-MP2 Gradient                 
  Shashank Vittal Rao    : ES-AILFT, MagRelax                            
  Christoph Reimann      : Effective Core Potentials                     
  Marius Retegan         : Local ZFS, SOC                                
  Christoph Riplinger    : Optimizer, TS searches, QM/MM, DLPNO-CCSD(T), (RO)-DLPNO pert. Triples 
  Michael Roemelt        : Original ROCIS implementation, recursive CI coupling coefficients
  Masaaki Saitow         : Open-shell DLPNO-CCSD energy and density      
  Barbara Sandhoefer     : DKH picture change effects                    
  Yorick L. A. Schmerwitz: GMF and freeze-and-release deltaSCF, NEB S-IDPP initial path                    
  Kantharuban Sivalingam : CASSCF convergence/infrastructure, NEVPT2, NEVPT3, NEVPT4(SD), FIC-MRCI and CEPA variants
  Bernardo de Souza      : ESD, SOC TD-DFT                               
  Georgi L. Stoychev     : AutoAux, RI-MP2 NMR, DLPNO-MP2 response, X2C  
  Van Anh Tran           : RI-MP2 g-tensors                              
  Willem Van den Heuvel  : Paramagnetic NMR                              
  Zikuan Wang            : NOTCH, Electric field optimization            
  Frank Wennmohs         : Technical directorship and infrastructure     
  Hang Xu                : AUTO-CI-Response properties                   
                                                                         
[FACCTs GmbH]                                                            
  Markus Bursch, Nicolas Foglia, Miquel Garcia-Rates, Ingolf Harden, Hagen Neugebauer, Anastasios Papadopoulos, 
  Christoph Riplinger, Bernardo de Souza, Georgi L. Stoychev                                                    
                                                                 
  APM, various basis sets, CI-OPT, improved COSX, DLPNO-Multilevel,           
  DOCKER, DRACO, updates on ESD, Fragmentator, GOAT, IRC, LR-CPCM, L-BFGS, MBIS, meta-GGA TD-DFT gradient, ML-optimized integration grids, 
  MM, NACMEs, nearIR, NEB, NEB-TS, NL-DFT gradient (VV10), 2- and 3-layer-ONIOM, interface openCOSMO-RS, QMMM,   
  Crystal-QMMM, RESP, rigid body optimization, SF, symmetry and pop. for TD-DFT, various functionals, SOLVATOR                                   
                                                                         
[Other institutions]                                                     
  V. Asgeirsson          : NEB                                           
  Christoph Bannwarth    : sTDA-DFT, sTD-DFT, PBEh-3c, B97-3c, D3        
  Giovanni Bistoni       : ETS/NOCV, ADLD/ADEX, COVALED                  
  Martin Brehm           : Molecular dynamics                            
  Ronald Cardenas        : ETS/NOCV                                      
  Martina Colucci        : COVALED                                       
  Sebastian Ehlert       : rSCAN, r2SCAN, r2SCAN-3c, D4, dhf basis sets  
  Marvin Friede          : D4 for Fr, Ra, Ac-Lr                          
  Lars Goerigk           : TD-DFT with DH, B97 family of functionals     
  Stefan Grimme          : VdW corrections, initial TS optimization, DFT functionals, gCP, sTDA/sTD-DF 
  Waldemar Hujo          : DFT-NL                                        
  H. Jonsson             : NEB                                           
  Holger Kruse           : gCP                                           
  Marcel Mueller         : wB97X-3c, vDZP basis set                      
  Hagen Neugebauer       : wr2SCAN, Native XTB                           
  Gianluca Regni         : ADLD/ADEX                                     
  Tobias Risthaus        : pre 6.0 range-separated hybrid DFT and stability analysis
  Lukas Wittmann         : regularized MP2, r2SCAN double-hybrids, wr2SCAN        
                                                                         
We gratefully acknowledge several colleagues who have allowed us to      
interface, adapt or use parts of their codes:                            
  Ed Valeev, F. Pavosevic, A. Kumar             : LibInt (2-el integral package), F12 methods 
  Garnet Chan, S. Sharma, J. Yang, R. Olivares  : DMRG                   
  Ulf Ekstrom                                   : XCFun DFT Library      
  Mihaly Kallay                                 : mrcc  (arbitrary order and MRCC methods)
  Frank Weinhold                                : gennbo (NPA and NBO analysis)           
  Simon Mueller                                 : openCOSMO-RS                            
  Christopher J. Cramer and Donald G. Truhlar   : smd solvation model                     
  S Lehtola, MJT Oliveira, MAL Marques          : LibXC Library                           
  Liviu Ungur et al                             : ANISO software                          


 Your calculation uses the libint2 library for the computation of 2-el integrals
 For citations please refer to: http://libint.valeyev.net

 Your ORCA version has been built with support for libXC version: 7.0.0
 For citations please refer to: https://libxc.gitlab.io

 This ORCA versions uses:
   CBLAS   interface :  Fast vector & matrix operations
   LAPACKE interface :  Fast linear algebra routines
   SCALAPACK package :  Parallel linear algebra routines
   Shared memory     :  Shared parallel matrices
   BLAS/LAPACK       :  OpenBLAS 0.3.29  USE64BITINT DYNAMIC_ARCH NO_AFFINITY SkylakeX SINGLE_THREADED
        Core in use  :  SkylakeX
   Copyright (c) 2011-2014, The OpenBLAS Project


  ***********************************
  * Starting time: Mon Mar 23 18:12:23 2026
  * Host name:     7ae43bb337bd
  * Process ID:    54
  * Working dir.:  /kaggle/working
  ***********************************

NOTE: MaxCore=3000 MB was set to SCF,MP2,MDCI,CIPSI,MRCI,RASCI and CIS
      => If you want to overwrite this, your respective input block should be placed after the MaxCore statement
Your calculation utilizes the atom-pairwise dispersion correction
with the Becke-Johnson damping scheme (D3BJ)


Your calculation utilizes the SMD solvation module
Please cite in your paper:
Marenich, A. V.; Cramer, C. J.; Truhlar, D. G. J. Phys. Chem. B 2009, 113, 6378 

Warning: RI is on but no J-basis has been assigned. Assigning Def2/J (nothing to worry about!)
================================================================================

----- Orbital basis set information -----
Your calculation utilizes the basis: def2-TZVPP
   F. Weigend and R. Ahlrichs, Phys. Chem. Chem. Phys. 7, 3297 (2005).

----- AuxJ basis set information -----
Your calculation utilizes the auxiliary basis: def2/J
   H-Rn: F. Weigend, Phys. Chem. Chem. Phys. 8, 1057 (2006).
   Fr-Lr: K. Eichkorn, F. Weigend, O. Treutler, R. Ahlrichs; Theor. Chem. Acc. 97, 119 (1997).

================================================================================
                                        WARNINGS
                       Please study these warnings very carefully!
================================================================================


WARNING: Geometry Optimization
  ===> : Switching off AutoStart
         For restart on a previous wavefunction, please use MOREAD

================================================================================
                                       INPUT FILE
================================================================================
NAME = /kaggle/working/Phe-Br-1/Phe-Br_InterFrag.inp
|  1> 
|  2> !RKS B3LYP def2-TZVPP TightSCF Opt D3BJ # 6-31G(d,p)
|  3>  
|  4> %pal nprocs 2 end
|  5> %maxcore 3000
|  6> 
|  7> %cpcm
|  8>   smd true
|  9>   SMDsolvent "WATER"
| 10>   end
| 11> 
| 12> %scf
| 13>   MaxIter 1000
| 14>   SOSCF Start 0.00033
| 15>   end
| 16> end
| 17> 
| 18> %output
| 19>   PrintLevel Normal
| 20>   Print[ P_OrbEn ] 2        # print ALL orbital energies (not just up to LUMO+9) :contentReference[oaicite:10]{index=10}
| 21>   XYZFile true              # writes basename.xyz (handy for reuse) :contentReference[oaicite:11]{index=11}
| 22>   end
| 23> 
| 24> *xyz 0 1
| 25> Br       4.691100000     -0.710600000     -0.441700000
| 26> O       -1.777300000     -1.659700000     -0.980100000
| 27> O       -3.504100000     -1.195600000      0.415700000
| 28> N       -3.297800000      1.452400000     -0.274600000
| 29> C       -1.110100000      1.025300000      0.748400000
| 30> C       -2.093400000      0.630300000     -0.364500000
| 31> C        0.310200000      0.599800000      0.455700000
| 32> C        0.745200000     -0.645200000      0.878500000
| 33> C        1.149200000      1.463900000     -0.228600000
| 34> C       -2.543900000     -0.815200000     -0.242100000
| 35> C        2.056400000     -1.037600000      0.609600000
| 36> C        2.460500000      1.071500000     -0.497700000
| 37> C        2.914100000     -0.179300000     -0.078700000
| 38> H       -1.425700000      0.606200000      1.713800000
| 39> H       -1.111200000      2.115300000      0.890300000
| 40> H       -1.663800000      0.782500000     -1.361300000
| 41> H        0.086400000     -1.319800000      1.417500000
| 42> H        0.804200000      2.438700000     -0.560800000
| 43> H       -3.051100000      2.433900000     -0.398200000
| 44> H       -3.695800000      1.382600000      0.661800000
| 45> H        2.394300000     -2.015200000      0.943800000
| 46> H        3.115800000      1.752000000     -1.035300000
| 47> H       -2.081900000     -2.589100000     -0.906000000
| 48> *
| 49> 
| 50>                          ****END OF INPUT****
================================================================================

                       *****************************
                       * Geometry Optimization Run *
                       *****************************

Geometry optimization settings:
Update method            Update   .... BFGS
Choice of coordinates    CoordSys .... (2022) Redundant Internals
Initial Hessian          InHess   .... Almloef's Model
Max. no of cycles        MaxIter  .... 69

Convergence Tolerances:
Energy Change            TolE     ....  5.0000e-06 Eh
Max. Gradient            TolMAXG  ....  3.0000e-04 Eh/bohr
RMS Gradient             TolRMSG  ....  1.0000e-04 Eh/bohr
Max. Displacement        TolMAXD  ....  4.0000e-03 bohr
RMS Displacement         TolRMSD  ....  2.0000e-03 bohr
Strict Convergence                .... False

------------------------------------------------------------------------------
                        ORCA OPTIMIZATION COORDINATE SETUP
------------------------------------------------------------------------------

The optimization will be done in redundant internal coordinates (2022)
Making redundant internal coordinates   ...  (2022 redundants) done
Evaluating the initial hessian          ...  (Almloef) done
Evaluating the coordinates              ...  done
Calculating the B-matrix                .... done
Calculating the G-matrix                .... done
The number of degrees of freedom        ....  107

    -----------------------------------------------------------------
                    Redundant Internal Coordinates


    -----------------------------------------------------------------
         Definition                    Initial Value    Approx d2E/dq
    -----------------------------------------------------------------
      1. B(C   5,C   4)                  1.5367         0.364491   
      2. B(C   5,N   3)                  1.4610         0.431127   
      3. B(C   6,C   4)                  1.5113         0.400165   
      4. B(C   7,C   6)                  1.3849         0.636560   
      5. B(C   8,C   6)                  1.3852         0.635846   
      6. B(C   9,O   2)                  1.2245         1.027845   
      7. B(C   9,O   1)                  1.3585         0.628268   
      8. B(C   9,C   5)                  1.5190         0.388961   
      9. B(C  10,C   7)                  1.3948         0.613824   
     10. B(C  11,C   8)                  1.3950         0.613526   
     11. B(C  12,C  11)                  1.3949         0.613595   
     12. B(C  12,C  10)                  1.3950         0.613376   
     13. B(C  12,Br  0)                  1.8899         0.334696   
     14. B(H  13,C   4)                  1.0987         0.348713   
     15. B(H  14,C   4)                  1.0992         0.348135   
     16. B(H  15,C   5)                  1.0961         0.352182   
     17. B(H  16,C   7)                  1.0861         0.365290   
     18. B(H  17,C   8)                  1.0861         0.365294   
     19. B(H  18,N   3)                  1.0195         0.417792   
     20. B(H  19,N   3)                  1.0199         0.417310   
     21. B(H  20,C  10)                  1.0870         0.364091   
     22. B(H  21,C  11)                  1.0870         0.364126   
     23. B(H  22,O   1)                  0.9808         0.481626   
     24. A(C   9,O   1,H  22)          111.8857         0.366115   
     25. A(H  18,N   3,H  19)          105.7609         0.299827   
     26. A(C   5,N   3,H  19)          109.8583         0.335352   
     27. A(C   5,N   3,H  18)          109.5583         0.335416   
     28. A(H  13,C   4,H  14)          105.3389         0.287850   
     29. A(C   5,C   4,H  14)          110.3494         0.321228   
     30. A(C   5,C   4,H  13)          110.7616         0.321315   
     31. A(C   5,C   4,C   6)          112.8750         0.366106   
     32. A(C   6,C   4,H  13)          109.4341         0.326278   
     33. A(C   6,C   4,H  14)          107.7663         0.326189   
     34. A(C   4,C   5,C   9)          112.0873         0.364331   
     35. A(C   4,C   5,H  15)          111.8475         0.321837   
     36. A(N   3,C   5,H  15)          107.5139         0.328865   
     37. A(C   9,C   5,H  15)          108.7637         0.325286   
     38. A(N   3,C   5,C   9)          106.6199         0.372642   
     39. A(N   3,C   5,C   4)          109.7729         0.368501   
     40. A(C   4,C   6,C   7)          119.2856         0.403380   
     41. A(C   7,C   6,C   8)          121.4224         0.438119   
     42. A(C   4,C   6,C   8)          119.2920         0.403300   
     43. A(C   6,C   7,H  16)          121.2885         0.355349   
     44. A(C  10,C   7,H  16)          119.4157         0.353166   
     45. A(C   6,C   7,C  10)          119.2955         0.435345   
     46. A(C  11,C   8,H  17)          119.4766         0.353137   
     47. A(C   6,C   8,H  17)          121.2367         0.355282   
     48. A(C   6,C   8,C  11)          119.2865         0.435219   
     49. A(O   1,C   9,O   2)          122.7666         0.470695   
     50. A(O   2,C   9,C   5)          124.8530         0.434281   
     51. A(O   1,C   9,C   5)          112.3602         0.397877   
     52. A(C   7,C  10,C  12)          120.0000         0.432449   
     53. A(C  12,C  10,H  20)          120.9246         0.352926   
     54. A(C   7,C  10,H  20)          119.0754         0.352969   
     55. A(C   8,C  11,C  12)          119.9979         0.432439   
     56. A(C  12,C  11,H  21)          120.9231         0.352953   
     57. A(C   8,C  11,H  21)          119.0790         0.352946   
     58. A(Br  0,C  12,C  10)          119.9934         0.413834   
     59. A(C  10,C  12,C  11)          119.9977         0.432420   
     60. A(Br  0,C  12,C  11)          120.0089         0.413860   
     61. D(C   9,C   5,C   4,C   6)     81.9358         0.010641   
     62. D(C   9,C   5,N   3,H  19)     67.0092         0.015847   
     63. D(C   9,C   5,C   4,H  13)    -41.1670         0.010641   
     64. D(C   9,C   5,C   4,H  14)   -157.4199         0.010641   
     65. D(N   3,C   5,C   4,H  13)     77.1204         0.010641   
     66. D(C   9,C   5,N   3,H  18)   -177.2187         0.015847   
     67. D(N   3,C   5,C   4,H  14)    -39.1325         0.010641   
     68. D(C   4,C   5,N   3,H  18)     61.1599         0.015847   
     69. D(N   3,C   5,C   4,C   6)   -159.7768         0.010641   
     70. D(H  15,C   5,N   3,H  18)    -60.7185         0.015847   
     71. D(C   4,C   5,N   3,H  19)    -54.6121         0.015847   
     72. D(C   7,C   6,C   4,H  14)    147.8313         0.011884   
     73. D(C   7,C   6,C   4,H  13)     33.7766         0.011884   
     74. D(C   7,C   6,C   4,C   5)    -90.0609         0.011884   
     75. D(C   8,C   6,C   4,C   5)     89.9968         0.011884   
     76. D(C   8,C   6,C   4,H  13)   -146.1656         0.011884   
     77. D(H  16,C   7,C   6,C   8)    179.8142         0.028133   
     78. D(H  16,C   7,C   6,C   4)     -0.1268         0.028133   
     79. D(C  10,C   7,C   6,C   8)      0.0025         0.028133   
     80. D(C  10,C   7,C   6,C   4)   -179.9384         0.028133   
     81. D(H  17,C   8,C   6,C   7)    179.8571         0.028066   
     82. D(C  11,C   8,C   6,C   7)      0.0042         0.028066   
     83. D(C  11,C   8,C   6,C   4)    179.9452         0.028066   
     84. D(H  17,C   8,C   6,C   4)     -0.2019         0.028066   
     85. D(O   2,C   9,C   5,N   3)    -31.8227         0.011259   
     86. D(O   1,C   9,C   5,H  15)     30.9114         0.011259   
     87. D(O   1,C   9,C   5,C   4)    -93.2838         0.011259   
     88. D(O   1,C   9,C   5,N   3)    146.5751         0.011259   
     89. D(C   5,C   9,O   1,H  22)   -179.1973         0.029016   
     90. D(O   2,C   9,C   5,C   4)     88.3184         0.011259   
     91. D(O   2,C   9,O   1,H  22)     -0.7608         0.029016   
     92. D(H  20,C  10,C   7,H  16)      0.1350         0.026041   
     93. D(H  20,C  10,C   7,C   6)    179.9502         0.026041   
     94. D(C  12,C  10,C   7,H  16)   -179.8283         0.026041   
     95. D(C  12,C  10,C   7,C   6)     -0.0131         0.026041   
     96. D(H  21,C  11,C   8,H  17)      0.1153         0.026014   
     97. D(H  21,C  11,C   8,C   6)    179.9708         0.026014   
     98. D(C  12,C  11,C   8,H  17)   -179.8559         0.026014   
     99. D(C  12,C  11,C   8,C   6)     -0.0004         0.026014   
    100. D(C  10,C  12,C  11,C   8)     -0.0101         0.026020   
    101. D(Br  0,C  12,C  11,H  21)      0.0864         0.026020   
    102. D(Br  0,C  12,C  11,C   8)   -179.9429         0.026020   
    103. D(C  11,C  12,C  10,H  20)   -179.9457         0.026001   
    104. D(C  11,C  12,C  10,C   7)      0.0169         0.026001   
    105. D(Br  0,C  12,C  10,H  20)     -0.0129         0.026001   
    106. D(C  10,C  12,C  11,H  21)   -179.9808         0.026020   
    107. D(Br  0,C  12,C  10,C   7)    179.9497         0.026001   
    -----------------------------------------------------------------

Number of atoms                         .... 23
Number of degrees of freedom            .... 107


         *************************************************************
         *                GEOMETRY OPTIMIZATION CYCLE   1            *
         *************************************************************
---------------------------------
CARTESIAN COORDINATES (ANGSTROEM)
---------------------------------
  Br     4.691100   -0.710600   -0.441700
  O     -1.777300   -1.659700   -0.980100
  O     -3.504100   -1.195600    0.415700
  N     -3.297800    1.452400   -0.274600
  C     -1.110100    1.025300    0.748400
  C     -2.093400    0.630300   -0.364500
  C      0.310200    0.599800    0.455700
  C      0.745200   -0.645200    0.878500
  C      1.149200    1.463900   -0.228600
  C     -2.543900   -0.815200   -0.242100
  C      2.056400   -1.037600    0.609600
  C      2.460500    1.071500   -0.497700
  C      2.914100   -0.179300   -0.078700
  H     -1.425700    0.606200    1.713800
  H     -1.111200    2.115300    0.890300
  H     -1.663800    0.782500   -1.361300
  H      0.086400   -1.319800    1.417500
  H      0.804200    2.438700   -0.560800
  H     -3.051100    2.433900   -0.398200
  H     -3.695800    1.382600    0.661800
  H      2.394300   -2.015200    0.943800
  H      3.115800    1.752000   -1.035300
  H     -2.081900   -2.589100   -0.906000

----------------------------
CARTESIAN COORDINATES (A.U.)
----------------------------
  NO LB      ZA    FRAG     MASS         X           Y           Z
   0 Br   35.0000    0    79.900    8.864894   -1.342839   -0.834692
   1 O     8.0000    0    15.999   -3.358610   -3.136378   -1.852121
   2 O     8.0000    0    15.999   -6.621789   -2.259357    0.785559
   3 N     7.0000    0    14.007   -6.231939    2.744638   -0.518919
   4 C     6.0000    0    12.011   -2.097785    1.937536    1.414271
   5 C     6.0000    0    12.011   -3.955953    1.191094   -0.688805
   6 C     6.0000    0    12.011    0.586193    1.133458    0.861148
   7 C     6.0000    0    12.011    1.408224   -1.219251    1.660124
   8 C     6.0000    0    12.011    2.171673    2.766370   -0.431991
   9 C     6.0000    0    12.011   -4.807274   -1.540505   -0.457503
  10 C     6.0000    0    12.011    3.886033   -1.960780    1.151977
  11 C     6.0000    0    12.011    4.649671    2.024842   -0.940517
  12 C     6.0000    0    12.011    5.506851   -0.338828   -0.148721
  13 H     1.0000    0     1.008   -2.694183    1.145552    3.238613
  14 H     1.0000    0     1.008   -2.099864    3.997338    1.682423
  15 H     1.0000    0     1.008   -3.144126    1.478711   -2.572484
  16 H     1.0000    0     1.008    0.163272   -2.494061    2.678687
  17 H     1.0000    0     1.008    1.519718    4.608475   -1.059758
  18 H     1.0000    0     1.008   -5.765743    4.599404   -0.752489
  19 H     1.0000    0     1.008   -6.984050    2.612735    1.250621
  20 H     1.0000    0     1.008    4.524571   -3.808176    1.783524
  21 H     1.0000    0     1.008    5.888009    3.310800   -1.956433
  22 H     1.0000    0     1.008   -3.934221   -4.892690   -1.712092

--------------------------------
INTERNAL COORDINATES (ANGSTROEM)
--------------------------------
 Br     0   0   0     0.000000000000     0.00000000     0.00000000
 O      1   0   0     6.559791454764     0.00000000     0.00000000
 O      2   1   0     2.268366083770   132.10884015     0.00000000
 N      3   2   1     2.744262702439    89.16402362    75.69315287
 C      4   3   2     2.452544535783    78.11763349   298.10957243
 C      4   3   2     1.460996160159    62.25677944   332.83500214
 C      5   4   3     1.511282776320   143.76076570    91.36363628
 C      7   5   4     1.384922322731   119.28563791   250.80375312
 C      7   5   4     1.385227887389   119.29195874    70.86151544
 C      3   2   1     1.224495422613    30.23795532    58.57610166
 C      8   7   5     1.394822716334   119.29553315   180.06156976
 C      9   7   5     1.394955289606   119.28654072   179.94519937
 C     12   9   7     1.394924585775   119.99789151     0.00000000
 H      5   4   3     1.098747163819   100.17772255   306.60079721
 H      5   4   3     1.099198262371    83.12327151   202.17928407
 H      6   4   3     1.096052571732   107.51388703   129.10082143
 H      8   7   5     1.086104783159   121.28853234   359.87322676
 H      9   7   5     1.086101689530   121.23666516   359.79806653
 H      4   3   2     1.019548968907   167.84907029   283.06378599
 H      4   3   2     1.019863226124    70.95358417   206.84592307
 H     11   8   7     1.086999452622   119.07537189   179.95022541
 H     12   9   7     1.086973826732   119.07899731   179.97077089
 H      2   1  13     0.980844702285   115.92010045   219.66720634

---------------------------
INTERNAL COORDINATES (A.U.)
---------------------------
 Br     0   0   0     0.000000000000     0.00000000     0.00000000
 O      1   0   0    12.396209345142     0.00000000     0.00000000
 O      2   1   0     4.286590669802   132.10884015     0.00000000
 N      3   2   1     5.185904947145    89.16402362    75.69315287
 C      4   3   2     4.634637503875    78.11763349   298.10957243
 C      4   3   2     2.760882625411    62.25677944   332.83500214
 C      5   4   3     2.855910558156   143.76076570    91.36363628
 C      7   5   4     2.617123906717   119.28563791   250.80375312
 C      7   5   4     2.617701340235   119.29195874    70.86151544
 C      3   2   1     2.313961000979    30.23795532    58.57610166
 C      8   7   5     2.635832939242   119.29553315   180.06156976
 C      9   7   5     2.636083466420   119.28654072   179.94519937
 C     12   9   7     2.636025444589   119.99789151     0.00000000
 H      5   4   3     2.076331230040   100.17772255   306.60079721
 H      5   4   3     2.077183682764    83.12327151   202.17928407
 H      6   4   3     2.071239188953   107.51388703   129.10082143
 H      8   7   5     2.052440592912   121.28853234   359.87322676
 H      9   7   5     2.052434746801   121.23666516   359.79806653
 H      4   3   2     1.926668331357   167.84907029   283.06378599
 H      4   3   2     1.927262191432    70.95358417   206.84592307
 H     11   8   7     2.054131273177   119.07537189   179.95022541
 H     12   9   7     2.054082847263   119.07899731   179.97077089
 H      2   1  13     1.853527867226   115.92010045   219.66720634

---------------------
BASIS SET INFORMATION
---------------------
There are 5 groups of distinct atoms

 Group   1 Type Br  : 17s13p8d1f contracted to 6s5p4d1f pattern {842111/64111/5111/1}
 Group   2 Type O   : 11s6p2d1f contracted to 5s3p2d1f pattern {62111/411/11/1}
 Group   3 Type N   : 11s6p2d1f contracted to 5s3p2d1f pattern {62111/411/11/1}
 Group   4 Type C   : 11s6p2d1f contracted to 5s3p2d1f pattern {62111/411/11/1}
 Group   5 Type H   : 5s2p1d contracted to 3s2p1d pattern {311/11/1}

Atom   0Br   basis set group =>   1
Atom   1O    basis set group =>   2
Atom   2O    basis set group =>   2
Atom   3N    basis set group =>   3
Atom   4C    basis set group =>   4
Atom   5C    basis set group =>   4
Atom   6C    basis set group =>   4
Atom   7C    basis set group =>   4
Atom   8C    basis set group =>   4
Atom   9C    basis set group =>   4
Atom  10C    basis set group =>   4
Atom  11C    basis set group =>   4
Atom  12C    basis set group =>   4
Atom  13H    basis set group =>   5
Atom  14H    basis set group =>   5
Atom  15H    basis set group =>   5
Atom  16H    basis set group =>   5
Atom  17H    basis set group =>   5
Atom  18H    basis set group =>   5
Atom  19H    basis set group =>   5
Atom  20H    basis set group =>   5
Atom  21H    basis set group =>   5
Atom  22H    basis set group =>   5
---------------------------------
AUXILIARY/J BASIS SET INFORMATION
---------------------------------
There are 5 groups of distinct atoms

 Group   1 Type Br  : 19s5p5d3f1g contracted to 8s4p3d2f1g pattern {121111111/2111/311/21/1}
 Group   2 Type O   : 12s5p4d2f1g contracted to 6s4p3d1f1g pattern {711111/2111/211/2/1}
 Group   3 Type N   : 12s5p4d2f1g contracted to 6s4p3d1f1g pattern {711111/2111/211/2/1}
 Group   4 Type C   : 12s5p4d2f1g contracted to 6s4p3d1f1g pattern {711111/2111/211/2/1}
 Group   5 Type H   : 5s2p1d contracted to 3s1p1d pattern {311/2/1}

Atom   0Br   basis set group =>   1
Atom   1O    basis set group =>   2
Atom   2O    basis set group =>   2
Atom   3N    basis set group =>   3
Atom   4C    basis set group =>   4
Atom   5C    basis set group =>   4
Atom   6C    basis set group =>   4
Atom   7C    basis set group =>   4
Atom   8C    basis set group =>   4
Atom   9C    basis set group =>   4
Atom  10C    basis set group =>   4
Atom  11C    basis set group =>   4
Atom  12C    basis set group =>   4
Atom  13H    basis set group =>   5
Atom  14H    basis set group =>   5
Atom  15H    basis set group =>   5
Atom  16H    basis set group =>   5
Atom  17H    basis set group =>   5
Atom  18H    basis set group =>   5
Atom  19H    basis set group =>   5
Atom  20H    basis set group =>   5
Atom  21H    basis set group =>   5
Atom  22H    basis set group =>   5


           ************************************************************
           *        Program running with 2 parallel MPI-processes     *
           *              working on a common directory               *
           ************************************************************
------------------------------------------------------------------------------
                             ORCA STARTUP CALCULATIONS
                           -- RI-GTO INTEGRALS CHOSEN --
------------------------------------------------------------------------------
------------------------------------------------------------------------------
                   ___                                                        
                  /   \      - P O W E R E D   B Y -                         
                 /     \                                                     
                 |  |  |   _    _      __       _____    __    __             
                 |  |  |  | |  | |    /  \     |  _  \  |  |  /  |          
                  \  \/   | |  | |   /    \    | | | |  |  | /  /          
                 / \  \   | |__| |  /  /\  \   | |_| |  |  |/  /          
                |  |  |   |  __  | /  /__\  \  |    /   |      \           
                |  |  |   | |  | | |   __   |  |    \   |  |\   \          
                \     /   | |  | | |  |  |  |  | |\  \  |  | \   \       
                 \___/    |_|  |_| |__|  |__|  |_| \__\ |__|  \__/        
                                                                              
                      - O R C A' S   B I G   F R I E N D -                    
                                      &                                       
                       - I N T E G R A L  F E E D E R -                       
                                                                              
 v1 FN, 2020, v2 2021, v3 2022-2024                                           
------------------------------------------------------------------------------


----------------------
SHARK INTEGRAL PACKAGE
----------------------

Number of atoms                             ...     23
Number of basis functions                   ...    560
Number of shells                            ...    208
Maximum angular momentum                    ...      3
Integral batch strategy                     ... SHARK/LIBINT Hybrid
RI-J (if used) integral strategy            ... SPLIT-RIJ (Revised 2003 algorithm where possible)
Printlevel                                  ...      1
Contraction scheme used                     ... SEGMENTED contraction
Prescreening option                         ... SCHWARTZ
   Thresh                                   ... 2.500e-11
   Tcut                                     ... 2.500e-12
   Tpresel                                  ... 2.500e-12 
Coulomb Range Separation                    ... NOT USED
Exchange Range Separation                   ... NOT USED
Multipole approximations                    ... NOT USED
Finite Nucleus Model                        ... NOT USED
CABS basis                                  ... NOT available
Auxiliary Coulomb fitting basis             ... AVAILABLE
   # of basis functions in Aux-J            ...    756
   # of shells in Aux-J                     ...    248
   Maximum angular momentum in Aux-J        ...      4
Auxiliary J/K fitting basis                 ... NOT available
Auxiliary Correlation fitting basis         ... NOT available
Auxiliary 'external' fitting basis          ... NOT available

Checking pre-screening integrals            ... done (  0.0 sec) Dimension = 208
   => SHARK Basis and OBASIS are compatible. Storing Pre-screening
Shell pair information
Shell pair cut-off parameter TPreSel        ...   2.5e-12
Total number of shell pairs                 ...     21736
Shell pairs after pre-screening             ...     17264
Total number of primitive shell pairs       ...     64980
Primitive shell pairs kept                  ...     36043
          la=0 lb=0:   3621 shell pairs
          la=1 lb=0:   4782 shell pairs
          la=1 lb=1:   1623 shell pairs
          la=2 lb=0:   2766 shell pairs
          la=2 lb=1:   1865 shell pairs
          la=2 lb=2:    552 shell pairs
          la=3 lb=0:    964 shell pairs
          la=3 lb=1:    643 shell pairs
          la=3 lb=2:    374 shell pairs
          la=3 lb=3:     74 shell pairs

Checking whether 4 symmetric matrices of dimension 560 fit in memory
:Max Core in MB      =   3000.00
 MB in use           =     24.71
 MB left             =   2975.29
 MB needed           =      4.79
 Data fit in memory  = YES
Calculating RI/J V-Matrix + Cholesky decomp.... done (  0.1 sec)
Calculating Nuclear repulsion               ... done (  0.0 sec) ENN=   1021.038255365126 Eh

Diagonalization of the overlap matrix:
Smallest eigenvalue                        ... 7.792e-06
Time for diagonalization                   ...    0.050 sec
Threshold for overlap eigenvalues          ... 1.000e-07
Number of eigenvalues below threshold      ... 0
Time for construction of square roots      ...    0.018 sec
Total time needed                          ...    0.071 sec

-------------------
DFT GRID GENERATION
-------------------

General Integration Accuracy     IntAcc      ... 4.388
Radial Grid Type                 RadialGrid  ... OptM3 with GC (2021)
Angular Grid (max. ang.)         AngularGrid ... 4 (Lebedev-302)
Angular grid pruning method      GridPruning ... 4 (adaptive)
Weight generation scheme         WeightScheme... mBecke (2022)
Basis function cutoff            BFCut       ... 1.0000e-11
Integration weight cutoff        WCut        ... 1.0000e-14
Partially contracted basis set               ... off
Rotationally invariant grid construction     ... off
Angular grids for H and He will be reduced by one unit
Core-polarized basis detected: some atoms will have their core
                               angular grid increased.

Total number of grid points                  ...   115312
Total number of batches                      ...     1815
Average number of points per batch           ...       63
Average number of grid points per atom       ...     5014

--------------------
COSX GRID GENERATION
--------------------

GRIDX 1
-------
General Integration Accuracy     IntAcc      ... 3.816
Radial Grid Type                 RadialGrid  ... OptM3 with GC (2021)
Angular Grid (max. ang.)         AngularGrid ... 1 (Lebedev-50)
Angular grid pruning method      GridPruning ... 4 (adaptive)
Weight generation scheme         WeightScheme... mBecke (2022)
Basis function cutoff            BFCut       ... 1.0000e-11
Integration weight cutoff        WCut        ... 1.0000e-14
Partially contracted basis set               ... on
Rotationally invariant grid construction     ... off
Angular grids for H and He will be reduced by one unit
Core-polarized basis detected: some atoms will have their core
                               angular grid increased.

Total number of grid points                  ...    19334
Total number of batches                      ...      165
Average number of points per batch           ...      117
Average number of grid points per atom       ...      841
UseSFitting                                  ... on

GRIDX 2
-------
General Integration Accuracy     IntAcc      ... 4.020
Radial Grid Type                 RadialGrid  ... OptM3 with GC (2021)
Angular Grid (max. ang.)         AngularGrid ... 2 (Lebedev-110)
Angular grid pruning method      GridPruning ... 4 (adaptive)
Weight generation scheme         WeightScheme... mBecke (2022)
Basis function cutoff            BFCut       ... 1.0000e-11
Integration weight cutoff        WCut        ... 1.0000e-14
Partially contracted basis set               ... on
Rotationally invariant grid construction     ... off
Angular grids for H and He will be reduced by one unit
Core-polarized basis detected: some atoms will have their core
                               angular grid increased.

Total number of grid points                  ...    34957
Total number of batches                      ...      285
Average number of points per batch           ...      122
Average number of grid points per atom       ...     1520
UseSFitting                                  ... on

GRIDX 3
-------
General Integration Accuracy     IntAcc      ... 4.338
Radial Grid Type                 RadialGrid  ... OptM3 with GC (2021)
Angular Grid (max. ang.)         AngularGrid ... 3 (Lebedev-194)
Angular grid pruning method      GridPruning ... 4 (adaptive)
Weight generation scheme         WeightScheme... mBecke (2022)
Basis function cutoff            BFCut       ... 1.0000e-11
Integration weight cutoff        WCut        ... 1.0000e-14
Partially contracted basis set               ... on
Rotationally invariant grid construction     ... off
Angular grids for H and He will be reduced by one unit
Core-polarized basis detected: some atoms will have their core
                               angular grid increased.

Total number of grid points                  ...    69341
Total number of batches                      ...      553
Average number of points per batch           ...      125
Average number of grid points per atom       ...     3015
UseSFitting                                  ... on
Grids setup in   3.8 sec
Initializing property integral containers    ... done (  0.0 sec)

SHARK setup successfully completed in   4.7 seconds

Maximum memory used throughout the entire STARTUP-calculation: 72.3 MB


           ************************************************************
           *        Program running with 2 parallel MPI-processes     *
           *              working on a common directory               *
           ************************************************************
-------------------------------------------------------------------------------
                                 ORCA GUESS
                   Start orbitals & Density for SCF / CASSCF
-------------------------------------------------------------------------------

------------
SCF SETTINGS
------------
Hamiltonian:
 Density Functional     Method          .... DFT(GTOs)
 Exchange Functional    Exchange        .... B88
   X-Alpha parameter    XAlpha          ....  0.666667
   Becke's b parameter  XBeta           ....  0.004200
 Correlation Functional Correlation     .... LYP
 LDA part of GGA corr.  LDAOpt          .... VWN-5
 Gradients option       PostSCFGGA      .... off
 Hybrid DFT is turned on
   Fraction HF Exchange ScalHFX         ....  0.200000
   Scaling of DF-GGA-X  ScalDFX         ....  0.720000
   Scaling of DF-GGA-C  ScalDFC         ....  0.810000
   Scaling of DF-LDA-C  ScalLDAC        ....  1.000000
   Perturbative correction              ....  0.000000
   NL short-range parameter             ....  4.800000
 RI-approximation to the Coulomb term is turned on
   Number of AuxJ basis functions       .... 756
   RIJ-COSX (HFX calculated with COS-X)).... on


General Settings:
 Integral files         IntName         .... /kaggle/working/Phe-Br-1/Phe-Br_InterFrag
 Hartree-Fock type      HFTyp           .... RHF
 Total Charge           Charge          ....    0
 Multiplicity           Mult            ....    1
 Number of Electrons    NEL             ....  122
 Basis Dimension        Dim             ....  560
 Nuclear Repulsion      ENuc            ....   1021.0382553651 Eh

Convergence Acceleration:
 AO-DIIS                CNVDIIS         .... on
   Start iteration      DIISMaxIt       ....    12
   Startup error        DIISStart       ....  0.200000
   # of expansion vecs  DIISMaxEq       ....     5
   Bias factor          DIISBfac        ....   1.050
   Max. coefficient     DIISMaxC        ....  10.000
 MO-DIIS                CNVKDIIS        .... off
 Trust-Rad. Augm. Hess. CNVTRAH         .... auto
   Auto Start mean grad. ratio tolernc. ....  1.125000
   Auto Start start iteration           ....    50
   Auto Start num. interpolation iter.  ....    10
   Max. Number of Micro iterations      ....    24
   Max. Number of Macro iterations      .... Maxiter - #DIIS iter
   Number of Davidson start vectors     ....     2
   Converg. threshold    (grad. norm)   ....   1.000e-05
   Grad. Scal. Fac. for Micro threshold ....   0.100
   Minimum threshold for Micro iter.    ....   1.000e-02
   NR start threshold (gradient norm)   ....   1.000e-04
   Initial trust radius                 ....   0.400
   Minimum AH scaling param. (alpha)    ....   1.000
   Maximum AH scaling param. (alpha)    .... 1000.000
   Quad. conv. algorithm                .... NR
   White noise on init. David. guess    .... on
   Maximum white noise                  ....   0.010
   Pseudo random numbers                .... off
   Inactive MOs                         .... canonical
   Orbital update algorithm             .... Taylor
   Preconditioner                       .... Diag
   Full preconditioner red. dimension   ....   250
 SOSCF                 CNVSOSCF           .... on
   Start iteration     SOSCFMaxIt         ....   150
   Startup grad/error  SOSCFStart         ....  0.000330
   Hessian update      SOSCFHessUp        .... L-BFGS
   Autom. constraints  SOSCFAutoConstrain .... off
 Level Shifting         CNVShift        .... on
   Level shift para.    LevelShift      ....    0.2500
   Turn off err/grad.   ShiftErr        ....    0.0010
 Zerner damping         CNVZerner       .... off
 Static damping         CNVDamp         .... on
   Fraction old density DampFac         ....    0.7000
   Max. Damping (<1)    DampMax         ....    0.9800
   Min. Damping (>=0)   DampMin         ....    0.0000
   Turn off err/grad.   DampErr         ....    0.1000

SCF Procedure:
 Maximum # iterations   MaxIter         ....  1000
 SCF integral mode      SCFMode         .... Direct
   Integral package                     .... SHARK and LIBINT hybrid scheme
 Reset frequency        DirectResetFreq ....    20
 Integral Threshold     Thresh          ....  2.500e-11 Eh
 Primitive CutOff       TCut            ....  2.500e-12 Eh

Convergence Tolerance:
 Convergence Check Mode ConvCheckMode   .... Total+1el-Energy
 Convergence forced     ConvForced      .... 0
 Energy Change          TolE            ....  1.000e-08 Eh
 1-El. energy change                    ....  1.000e-05 Eh
 Orbital Gradient       TolG            ....  1.000e-05
 Orbital Rotation angle TolX            ....  1.000e-05
 DIIS Error             TolErr          ....  5.000e-07

------------------------------
INITIAL GUESS: MODEL POTENTIAL
------------------------------
Loading Hartree-Fock densities                     ... done
Calculating cut-offs                               ... done
Initializing the effective Hamiltonian             ... done
Setting up the integral package (SHARK)            ... done
Starting the Coulomb interaction                   ... done (   0.8 sec)
Making the grid                                    ... done (   0.5 sec)
Mapping shells                                     ... done
Starting the XC term evaluation                    ... done (   0.7 sec)
  promolecular density results
     # of electrons  =    122.002753725
     EX              =   -161.935751107
     EC              =     -4.670259532
     EX+EC           =   -166.606010639
Transforming the Hamiltonian                       ... done (   0.0 sec)
Diagonalizing the Hamiltonian                      ... done (   0.1 sec)
Back transforming the eigenvectors                 ... done (   0.0 sec)
Now organizing SCF variables                       ... done
                      ------------------
                      INITIAL GUESS DONE (   2.2 sec)
                      ------------------
             **** ENERGY FILE WAS UPDATED (/kaggle/working/Phe-Br-1/Phe-Br_InterFrag.en.tmp) ****
Finished Guess after   2.6 sec
Maximum memory used throughout the entire GUESS-calculation: 48.2 MB


           ************************************************************
           *        Program running with 2 parallel MPI-processes     *
           *              working on a common directory               *
           ************************************************************

-------------------------------------------------------------------------------------------
                                      ORCA LEAN-SCF
                              memory conserving SCF solver
-------------------------------------------------------------------------------------------

--------------------
CPCM SOLVATION MODEL
--------------------
CPCM parameters:
  Epsilon                                         ...      78.3550
  Refrac                                          ...       1.3328
  Rsolv                                           ...       1.3000
  Surface type                                    ... GAUSSIAN VDW
  Discretization scheme                           ... Constant charge density
    Threshold for H atoms                         ...       5.0000 (charges/Ang^2)
    Threshold for non-H atoms                     ...       5.0000 (charges/Ang^2)
  Epsilon function type                           ...         CPCM
Solvent:                                          ... WATER
SMD-CDS solvent descriptors:
  Soln                                            ...       1.3328
  Soln25                                          ...       1.3323
  Sola                                            ...       0.0000
  Solb                                            ...       0.0000
  Solg                                            ...       0.0000
  Solc                                            ...       0.0000
  Solh                                            ...       0.0000
Radii:
  Scheme                                          ... Element-dependent radii
  Radius for Br used is    5.7826 Bohr (=   3.0600 Ang.)
  Radius for O  used is    2.8724 Bohr (=   1.5200 Ang.)
  Radius for N  used is    3.5716 Bohr (=   1.8900 Ang.)
  Radius for C  used is    3.4960 Bohr (=   1.8500 Ang.)
  Radius for H  used is    2.2677 Bohr (=   1.2000 Ang.)
Calculating surface                               ...        done! (  0.0s)
Cavity surface points                             ...         2031
Cavity Volume                                     ...    1774.4929
Cavity Surface-area                               ...     945.3938
Calculating surface distance matrix               ...        done! (  0.1s)
Performing Cholesky decomposition & store         ...        done! (  0.2s)
Overall time for CPCM initialization              ...                 0.3s

----------------------------------------D-I-I-S--------------------------------------------
Iteration    Energy (Eh)           Delta-E    RMSDP     MaxDP     DIISErr   Damp  Time(sec)
-------------------------------------------------------------------------------------------
               ***  Starting incremental Fock matrix formation  ***
    1    -3127.7464000577901970     0.00e+00  1.56e-03  7.41e-02  2.84e-01  0.700  27.1
    2    -3127.9424809270594778    -1.96e-01  1.21e-03  7.18e-02  1.27e-01  0.700  15.2
                               ***Turning on AO-DIIS***
    3    -3128.0161053586280104    -7.36e-02  5.29e-04  2.24e-02  3.50e-02  0.700  14.8
    4    -3128.0606339611331350    -4.45e-02  9.77e-04  3.85e-02  1.54e-02  0.000  14.2
    5    -3128.1596139155690253    -9.90e-02  2.70e-04  1.66e-02  7.37e-03  0.000  14.8
    6    -3128.1602256337118888    -6.12e-04  1.04e-04  5.56e-03  3.05e-03  0.000  13.3
    7    -3128.1602646615565391    -3.90e-05  4.32e-05  1.50e-03  7.40e-04  0.000  12.2
               *** Restarting incremental Fock matrix formation ***
                             ****Resetting DIIS****
    8    -3128.1602873640631515    -2.27e-05  3.71e-05  1.18e-03  6.50e-04  0.000  27.2
    9    -3128.1602863932612308     9.71e-07  7.09e-06  4.07e-04  1.21e-03  0.000  18.4
                              *** Initializing SOSCF ***
---------------------------------------S-O-S-C-F--------------------------------------
Iteration    Energy (Eh)           Delta-E    RMSDP     MaxDP     MaxGrad    Time(sec)
--------------------------------------------------------------------------------------
   10    -3128.1602886414611930    -2.25e-06  2.55e-06  6.36e-05  1.24e-04     8.7
               *** Restarting incremental Fock matrix formation ***
   11    -3128.1602885854599663     5.60e-08  2.66e-06  8.19e-05  2.27e-05    26.9
   12    -3128.1602885371312368     4.83e-08  1.35e-06  5.40e-05  4.57e-05    13.1
   13    -3128.1602885899610555    -5.28e-08  1.00e-06  2.91e-05  4.50e-06    11.4
   14    -3128.1602885843012700     5.66e-09  6.50e-07  2.44e-05  6.54e-06    10.3
                 **** Energy Check signals convergence ****

               *****************************************************
               *                     SUCCESS                       *
               *           SCF CONVERGED AFTER  14 CYCLES          *
               *****************************************************

Recomputing exchange energy using gridx3       ... done (   40.399 sec)
Old exchange energy                            :    -32.577315093 Eh
New exchange energy                            :    -32.577344983 Eh
Exchange energy change after final integration :     -0.000029891 Eh
Total energy after final integration           :  -3128.160318492 Eh

SMD CDS free energy correction energy :                 3.67568     Kcal/mol
Total Energy after SMD CDS correction =             -3128.154460919 Eh
             **** ENERGY FILE WAS UPDATED (/kaggle/working/Phe-Br-1/Phe-Br_InterFrag.en.tmp) ****

----------------
TOTAL SCF ENERGY
----------------

Total Energy       :      -3128.15446091884496 Eh          -85121.41037 eV

Components:
Nuclear Repulsion  :       1021.03825536512613 Eh           27783.86343 eV
Electronic Energy  :      -4149.16476665739810 Eh         -112904.51326 eV
One Electron Energy:      -6365.16864098941187 Eh         -173205.04430 eV
Two Electron Energy:       2216.00387433201377 Eh           60300.53104 eV
CPCM Dielectric    :         -0.03377730935226 Eh              -0.91913 eV
SMD CDS (Gcds)     :          0.00585757351067 Eh               0.15939 eV

Virial components:
Potential Energy   :      -6250.09882623267731 Eh         -170073.83545 eV
Kinetic Energy     :       3121.94436531383280 Eh           84952.42508 eV
Virial Ratio       :          2.00198917561569

DFT components:
N(Alpha)           :       60.999951071442 electrons
N(Beta)            :       60.999951071442 electrons
N(Total)           :      121.999902142885 electrons
E(X)               :     -129.606222648788 Eh       
E(C)               :       -5.483995604638 Eh       
E(XC)              :     -135.090218253427 Eh       

CPCM Solvation Model Properties:
Surface-charge          :         -0.03529224195948
Corrected charge        :         -0.00000000000000
Outlying charge corr.   :          0.00007359061416 Eh               0.00200 eV
Free-energy (cav+disp)  :          0.00585757351067 Eh               0.15939 eV

---------------
SCF CONVERGENCE
---------------

  Last Energy change         ...   -5.6598e-09  Tolerance :   1.0000e-08
  Last MAX-Density change    ...    2.4357e-05  Tolerance :   1.0000e-07
  Last RMS-Density change    ...    6.4978e-07  Tolerance :   5.0000e-09
  Last DIIS Error            ...    1.2363e-04  Tolerance :   5.0000e-07
  Last Orbital Gradient      ...    6.5398e-06  Tolerance :   1.0000e-05
  Last Orbital Rotation      ...    6.3754e-06  Tolerance :   1.0000e-05


----------------
ORBITAL ENERGIES
----------------

  NO   OCC          E(Eh)            E(eV) 
   0   2.0000    -482.856483    -13139.1929 
   1   2.0000     -62.504001     -1700.8203 
   2   2.0000     -56.319382     -1532.5283 
   3   2.0000     -56.317063     -1532.4652 
   4   2.0000     -56.317015     -1532.4639 
   5   2.0000     -19.176639      -521.8229 
   6   2.0000     -19.128177      -520.5042 
   7   2.0000     -14.292846      -388.9281 
   8   2.0000     -10.316165      -280.7171 
   9   2.0000     -10.226876      -278.2875 
  10   2.0000     -10.214991      -277.9640 
  11   2.0000     -10.182131      -277.0699 
  12   2.0000     -10.181888      -277.0633 
  13   2.0000     -10.179813      -277.0068 
  14   2.0000     -10.175295      -276.8838 
  15   2.0000     -10.174768      -276.8695 
  16   2.0000     -10.171470      -276.7798 
  17   2.0000      -8.695095      -236.6056 
  18   2.0000      -6.524287      -177.5349 
  19   2.0000      -6.513844      -177.2507 
  20   2.0000      -6.513512      -177.2417 
  21   2.0000      -2.639012       -71.8112 
  22   2.0000      -2.636058       -71.7308 
  23   2.0000      -2.635834       -71.7247 
  24   2.0000      -2.627183       -71.4893 
  25   2.0000      -2.627180       -71.4892 
  26   2.0000      -1.105362       -30.0784 
  27   2.0000      -1.022122       -27.8133 
  28   2.0000      -0.894354       -24.3366 
  29   2.0000      -0.874027       -23.7835 
  30   2.0000      -0.815060       -22.1789 
  31   2.0000      -0.761769       -20.7288 
  32   2.0000      -0.753376       -20.5004 
  33   2.0000      -0.715229       -19.4624 
  34   2.0000      -0.665275       -18.1030 
  35   2.0000      -0.616741       -16.7824 
  36   2.0000      -0.595973       -16.2172 
  37   2.0000      -0.577058       -15.7026 
  38   2.0000      -0.529474       -14.4077 
  39   2.0000      -0.501895       -13.6573 
  40   2.0000      -0.496860       -13.5202 
  41   2.0000      -0.475440       -12.9374 
  42   2.0000      -0.466482       -12.6936 
  43   2.0000      -0.455529       -12.3956 
  44   2.0000      -0.442886       -12.0515 
  45   2.0000      -0.430067       -11.7027 
  46   2.0000      -0.425626       -11.5819 
  47   2.0000      -0.408877       -11.1261 
  48   2.0000      -0.401987       -10.9386 
  49   2.0000      -0.388493       -10.5714 
  50   2.0000      -0.377691       -10.2775 
  51   2.0000      -0.368876       -10.0376 
  52   2.0000      -0.347971        -9.4688 
  53   2.0000      -0.343689        -9.3523 
  54   2.0000      -0.334169        -9.0932 
  55   2.0000      -0.313876        -8.5410 
  56   2.0000      -0.295502        -8.0410 
  57   2.0000      -0.291364        -7.9284 
  58   2.0000      -0.262897        -7.1538 
  59   2.0000      -0.253913        -6.9093 
  60   2.0000      -0.234139        -6.3712 
  61   0.0000      -0.021175        -0.5762 
  62   0.0000      -0.019436        -0.5289 
  63   0.0000      -0.009869        -0.2686 
  64   0.0000       0.003124         0.0850 
  65   0.0000       0.045090         1.2270 
  66   0.0000       0.053178         1.4470 
  67   0.0000       0.075466         2.0535 
  68   0.0000       0.076685         2.0867 
  69   0.0000       0.090506         2.4628 
  70   0.0000       0.098894         2.6911 
  71   0.0000       0.103533         2.8173 
  72   0.0000       0.110957         3.0193 
  73   0.0000       0.128938         3.5086 
  74   0.0000       0.133857         3.6424 
  75   0.0000       0.141519         3.8509 
  76   0.0000       0.148360         4.0371 
  77   0.0000       0.152610         4.1527 
  78   0.0000       0.176874         4.8130 
  79   0.0000       0.185478         5.0471 
  80   0.0000       0.195594         5.3224 
  81   0.0000       0.197038         5.3617 
  82   0.0000       0.198038         5.3889 
  83   0.0000       0.206882         5.6295 
  84   0.0000       0.217892         5.9292 
  85   0.0000       0.225426         6.1341 
  86   0.0000       0.228767         6.2251 
  87   0.0000       0.236908         6.4466 
  88   0.0000       0.242518         6.5993 
  89   0.0000       0.244273         6.6470 
  90   0.0000       0.259083         7.0500 
  91   0.0000       0.261571         7.1177 
  92   0.0000       0.277573         7.5531 
  93   0.0000       0.281860         7.6698 
  94   0.0000       0.285046         7.7565 
  95   0.0000       0.294236         8.0066 
  96   0.0000       0.299382         8.1466 
  97   0.0000       0.304852         8.2955 
  98   0.0000       0.309608         8.4249 
  99   0.0000       0.320897         8.7320 
 100   0.0000       0.323844         8.8122 
 101   0.0000       0.328359         8.9351 
 102   0.0000       0.334097         9.0913 
 103   0.0000       0.340444         9.2640 
 104   0.0000       0.349131         9.5003 
 105   0.0000       0.360090         9.7985 
 106   0.0000       0.366124         9.9627 
 107   0.0000       0.368460        10.0263 
 108   0.0000       0.372581        10.1385 
 109   0.0000       0.382175        10.3995 
 110   0.0000       0.389413        10.5965 
 111   0.0000       0.394576        10.7370 
 112   0.0000       0.405162        11.0250 
 113   0.0000       0.417831        11.3698 
 114   0.0000       0.425862        11.5883 
 115   0.0000       0.428534        11.6610 
 116   0.0000       0.437064        11.8931 
 117   0.0000       0.442239        12.0339 
 118   0.0000       0.444764        12.1026 
 119   0.0000       0.450242        12.2517 
 120   0.0000       0.450624        12.2621 
 121   0.0000       0.456891        12.4326 
 122   0.0000       0.466607        12.6970 
 123   0.0000       0.483299        13.1512 
 124   0.0000       0.487241        13.2585 
 125   0.0000       0.498262        13.5584 
 126   0.0000       0.507138        13.7999 
 127   0.0000       0.510238        13.8843 
 128   0.0000       0.516200        14.0465 
 129   0.0000       0.524753        14.2793 
 130   0.0000       0.530568        14.4375 
 131   0.0000       0.537527        14.6269 
 132   0.0000       0.545172        14.8349 
 133   0.0000       0.550583        14.9821 
 134   0.0000       0.566492        15.4150 
 135   0.0000       0.575175        15.6513 
 136   0.0000       0.579425        15.7669 
 137   0.0000       0.595445        16.2029 
 138   0.0000       0.607308        16.5257 
 139   0.0000       0.623069        16.9546 
 140   0.0000       0.633452        17.2371 
 141   0.0000       0.641388        17.4531 
 142   0.0000       0.647176        17.6105 
 143   0.0000       0.654183        17.8012 
 144   0.0000       0.674408        18.3516 
 145   0.0000       0.681722        18.5506 
 146   0.0000       0.684211        18.6183 
 147   0.0000       0.689711        18.7680 
 148   0.0000       0.700861        19.0714 
 149   0.0000       0.710291        19.3280 
 150   0.0000       0.729145        19.8411 
 151   0.0000       0.737654        20.0726 
 152   0.0000       0.748760        20.3748 
 153   0.0000       0.751749        20.4561 
 154   0.0000       0.781716        21.2716 
 155   0.0000       0.792573        21.5670 
 156   0.0000       0.810061        22.0429 
 157   0.0000       0.817877        22.2556 
 158   0.0000       0.823626        22.4120 
 159   0.0000       0.827510        22.5177 
 160   0.0000       0.838508        22.8170 
 161   0.0000       0.844564        22.9818 
 162   0.0000       0.871970        23.7275 
 163   0.0000       0.878708        23.9109 
 164   0.0000       0.888414        24.1750 
 165   0.0000       0.901403        24.5284 
 166   0.0000       0.914644        24.8887 
 167   0.0000       0.932243        25.3676 
 168   0.0000       0.934419        25.4268 
 169   0.0000       0.944535        25.7021 
 170   0.0000       0.960705        26.1421 
 171   0.0000       0.967569        26.3289 
 172   0.0000       0.971926        26.4475 
 173   0.0000       0.985171        26.8079 
 174   0.0000       0.994925        27.0733 
 175   0.0000       1.003772        27.3140 
 176   0.0000       1.016644        27.6643 
 177   0.0000       1.018725        27.7209 
 178   0.0000       1.027755        27.9666 
 179   0.0000       1.042278        28.3618 
 180   0.0000       1.058197        28.7950 
 181   0.0000       1.063669        28.9439 
 182   0.0000       1.066890        29.0315 
 183   0.0000       1.086362        29.5614 
 184   0.0000       1.102310        29.9954 
 185   0.0000       1.111841        30.2547 
 186   0.0000       1.127268        30.6745 
 187   0.0000       1.136627        30.9292 
 188   0.0000       1.151691        31.3391 
 189   0.0000       1.161557        31.6076 
 190   0.0000       1.165085        31.7036 
 191   0.0000       1.173319        31.9276 
 192   0.0000       1.182906        32.1885 
 193   0.0000       1.185631        32.2627 
 194   0.0000       1.200709        32.6730 
 195   0.0000       1.212350        32.9897 
 196   0.0000       1.216757        33.1096 
 197   0.0000       1.232154        33.5286 
 198   0.0000       1.238663        33.7057 
 199   0.0000       1.243439        33.8357 
 200   0.0000       1.247829        33.9551 
 201   0.0000       1.264769        34.4161 
 202   0.0000       1.289482        35.0886 
 203   0.0000       1.295992        35.2657 
 204   0.0000       1.306360        35.5479 
 205   0.0000       1.310389        35.6575 
 206   0.0000       1.321731        35.9661 
 207   0.0000       1.331333        36.2274 
 208   0.0000       1.337200        36.3871 
 209   0.0000       1.348620        36.6978 
 210   0.0000       1.363821        37.1115 
 211   0.0000       1.373413        37.3725 
 212   0.0000       1.379327        37.5334 
 213   0.0000       1.384928        37.6858 
 214   0.0000       1.391911        37.8758 
 215   0.0000       1.402157        38.1546 
 216   0.0000       1.419276        38.6205 
 217   0.0000       1.426802        38.8253 
 218   0.0000       1.431112        38.9425 
 219   0.0000       1.441881        39.2356 
 220   0.0000       1.454849        39.5885 
 221   0.0000       1.463296        39.8183 
 222   0.0000       1.473011        40.0827 
 223   0.0000       1.486039        40.4372 
 224   0.0000       1.502775        40.8926 
 225   0.0000       1.508714        41.0542 
 226   0.0000       1.517858        41.3030 
 227   0.0000       1.534137        41.7460 
 228   0.0000       1.537137        41.8276 
 229   0.0000       1.544469        42.0271 
 230   0.0000       1.552650        42.2498 
 231   0.0000       1.558358        42.4051 
 232   0.0000       1.568403        42.6784 
 233   0.0000       1.575538        42.8726 
 234   0.0000       1.581846        43.0442 
 235   0.0000       1.587692        43.2033 
 236   0.0000       1.607858        43.7520 
 237   0.0000       1.620327        44.0913 
 238   0.0000       1.635625        44.5076 
 239   0.0000       1.647422        44.8286 
 240   0.0000       1.650165        44.9033 
 241   0.0000       1.664328        45.2887 
 242   0.0000       1.666621        45.3511 
 243   0.0000       1.675139        45.5828 
 244   0.0000       1.679703        45.7070 
 245   0.0000       1.694153        46.1002 
 246   0.0000       1.701700        46.3056 
 247   0.0000       1.719892        46.8007 
 248   0.0000       1.731931        47.1282 
 249   0.0000       1.739530        47.3350 
 250   0.0000       1.749642        47.6102 
 251   0.0000       1.761475        47.9322 
 252   0.0000       1.771058        48.1929 
 253   0.0000       1.802986        49.0617 
 254   0.0000       1.820336        49.5339 
 255   0.0000       1.825464        49.6734 
 256   0.0000       1.836842        49.9830 
 257   0.0000       1.843388        50.1611 
 258   0.0000       1.848549        50.3016 
 259   0.0000       1.862783        50.6889 
 260   0.0000       1.873175        50.9717 
 261   0.0000       1.895625        51.5826 
 262   0.0000       1.919804        52.2405 
 263   0.0000       1.933360        52.6094 
 264   0.0000       1.962662        53.4068 
 265   0.0000       1.984026        53.9881 
 266   0.0000       1.989888        54.1476 
 267   0.0000       1.996818        54.3362 
 268   0.0000       2.018504        54.9263 
 269   0.0000       2.025536        55.1177 
 270   0.0000       2.032895        55.3179 
 271   0.0000       2.042702        55.5847 
 272   0.0000       2.083239        56.6878 
 273   0.0000       2.097626        57.0793 
 274   0.0000       2.114867        57.5485 
 275   0.0000       2.146875        58.4194 
 276   0.0000       2.155440        58.6525 
 277   0.0000       2.176659        59.2299 
 278   0.0000       2.182492        59.3886 
 279   0.0000       2.203923        59.9718 
 280   0.0000       2.227571        60.6153 
 281   0.0000       2.236887        60.8688 
 282   0.0000       2.259684        61.4891 
 283   0.0000       2.270497        61.7834 
 284   0.0000       2.303707        62.6871 
 285   0.0000       2.327922        63.3460 
 286   0.0000       2.332055        63.4584 
 287   0.0000       2.340894        63.6990 
 288   0.0000       2.395016        65.1717 
 289   0.0000       2.399654        65.2979 
 290   0.0000       2.419321        65.8331 
 291   0.0000       2.456193        66.8364 
 292   0.0000       2.481400        67.5223 
 293   0.0000       2.496868        67.9432 
 294   0.0000       2.521446        68.6120 
 295   0.0000       2.539377        69.1000 
 296   0.0000       2.558061        69.6084 
 297   0.0000       2.581158        70.2369 
 298   0.0000       2.601424        70.7883 
 299   0.0000       2.626916        71.4820 
 300   0.0000       2.637213        71.7622 
 301   0.0000       2.656252        72.2803 
 302   0.0000       2.685631        73.0797 
 303   0.0000       2.698082        73.4186 
 304   0.0000       2.702160        73.5295 
 305   0.0000       2.715203        73.8844 
 306   0.0000       2.731283        74.3220 
 307   0.0000       2.734530        74.4103 
 308   0.0000       2.752025        74.8864 
 309   0.0000       2.757536        75.0364 
 310   0.0000       2.773786        75.4786 
 311   0.0000       2.780821        75.6700 
 312   0.0000       2.792983        76.0009 
 313   0.0000       2.803527        76.2879 
 314   0.0000       2.826780        76.9206 
 315   0.0000       2.831081        77.0376 
 316   0.0000       2.836240        77.1780 
 317   0.0000       2.845305        77.4247 
 318   0.0000       2.856759        77.7364 
 319   0.0000       2.860686        77.8432 
 320   0.0000       2.900563        78.9283 
 321   0.0000       2.904294        79.0299 
 322   0.0000       2.932141        79.7876 
 323   0.0000       2.934198        79.8436 
 324   0.0000       2.952554        80.3431 
 325   0.0000       2.954122        80.3858 
 326   0.0000       2.969570        80.8061 
 327   0.0000       2.974666        80.9448 
 328   0.0000       2.989918        81.3598 
 329   0.0000       2.994970        81.4973 
 330   0.0000       3.011690        81.9523 
 331   0.0000       3.021791        82.2271 
 332   0.0000       3.032231        82.5112 
 333   0.0000       3.048144        82.9442 
 334   0.0000       3.052437        83.0610 
 335   0.0000       3.059385        83.2501 
 336   0.0000       3.066467        83.4428 
 337   0.0000       3.078694        83.7755 
 338   0.0000       3.094535        84.2066 
 339   0.0000       3.102822        84.4321 
 340   0.0000       3.116571        84.8062 
 341   0.0000       3.125599        85.0519 
 342   0.0000       3.142971        85.5246 
 343   0.0000       3.161629        86.0323 
 344   0.0000       3.166152        86.1554 
 345   0.0000       3.170932        86.2855 
 346   0.0000       3.181223        86.5655 
 347   0.0000       3.186340        86.7047 
 348   0.0000       3.206689        87.2585 
 349   0.0000       3.211739        87.3959 
 350   0.0000       3.217403        87.5500 
 351   0.0000       3.227731        87.8310 
 352   0.0000       3.234916        88.0265 
 353   0.0000       3.255696        88.5920 
 354   0.0000       3.261042        88.7375 
 355   0.0000       3.267465        88.9122 
 356   0.0000       3.281749        89.3009 
 357   0.0000       3.288956        89.4970 
 358   0.0000       3.297156        89.7202 
 359   0.0000       3.303789        89.9007 
 360   0.0000       3.312474        90.1370 
 361   0.0000       3.317106        90.2630 
 362   0.0000       3.332171        90.6730 
 363   0.0000       3.340864        90.9095 
 364   0.0000       3.355733        91.3142 
 365   0.0000       3.369012        91.6755 
 366   0.0000       3.379633        91.9645 
 367   0.0000       3.390690        92.2654 
 368   0.0000       3.406175        92.6867 
 369   0.0000       3.416377        92.9644 
 370   0.0000       3.423017        93.1450 
 371   0.0000       3.430339        93.3443 
 372   0.0000       3.442310        93.6700 
 373   0.0000       3.452796        93.9554 
 374   0.0000       3.454700        94.0072 
 375   0.0000       3.470554        94.4386 
 376   0.0000       3.484888        94.8286 
 377   0.0000       3.499207        95.2183 
 378   0.0000       3.506073        95.4051 
 379   0.0000       3.522509        95.8523 
 380   0.0000       3.528969        96.0281 
 381   0.0000       3.539389        96.3117 
 382   0.0000       3.545803        96.4862 
 383   0.0000       3.554640        96.7267 
 384   0.0000       3.568745        97.1105 
 385   0.0000       3.572731        97.2190 
 386   0.0000       3.585709        97.5721 
 387   0.0000       3.596435        97.8640 
 388   0.0000       3.632445        98.8439 
 389   0.0000       3.646399        99.2236 
 390   0.0000       3.658364        99.5492 
 391   0.0000       3.668217        99.8173 
 392   0.0000       3.691316       100.4458 
 393   0.0000       3.696008       100.5735 
 394   0.0000       3.706498       100.8589 
 395   0.0000       3.721922       101.2786 
 396   0.0000       3.733783       101.6014 
 397   0.0000       3.745941       101.9322 
 398   0.0000       3.760319       102.3235 
 399   0.0000       3.776289       102.7581 
 400   0.0000       3.783527       102.9550 
 401   0.0000       3.795639       103.2846 
 402   0.0000       3.813857       103.7803 
 403   0.0000       3.829687       104.2111 
 404   0.0000       3.835510       104.3695 
 405   0.0000       3.843397       104.5841 
 406   0.0000       3.857625       104.9713 
 407   0.0000       3.860448       105.0481 
 408   0.0000       3.887730       105.7905 
 409   0.0000       3.895940       106.0139 
 410   0.0000       3.906853       106.3109 
 411   0.0000       3.919204       106.6470 
 412   0.0000       3.922059       106.7246 
 413   0.0000       3.937362       107.1411 
 414   0.0000       3.954561       107.6091 
 415   0.0000       3.964272       107.8733 
 416   0.0000       3.974254       108.1449 
 417   0.0000       3.979859       108.2975 
 418   0.0000       3.995267       108.7167 
 419   0.0000       3.998942       108.8167 
 420   0.0000       4.018660       109.3533 
 421   0.0000       4.032048       109.7176 
 422   0.0000       4.048797       110.1734 
 423   0.0000       4.056615       110.3861 
 424   0.0000       4.063137       110.5636 
 425   0.0000       4.081696       111.0686 
 426   0.0000       4.091053       111.3232 
 427   0.0000       4.095147       111.4346 
 428   0.0000       4.114481       111.9607 
 429   0.0000       4.123099       112.1952 
 430   0.0000       4.134408       112.5030 
 431   0.0000       4.146417       112.8298 
 432   0.0000       4.153025       113.0095 
 433   0.0000       4.165039       113.3365 
 434   0.0000       4.186992       113.9339 
 435   0.0000       4.194312       114.1330 
 436   0.0000       4.220253       114.8389 
 437   0.0000       4.222623       114.9034 
 438   0.0000       4.229572       115.0925 
 439   0.0000       4.244120       115.4884 
 440   0.0000       4.255809       115.8064 
 441   0.0000       4.260058       115.9221 
 442   0.0000       4.278009       116.4106 
 443   0.0000       4.283434       116.5582 
 444   0.0000       4.289085       116.7119 
 445   0.0000       4.308885       117.2507 
 446   0.0000       4.315346       117.4265 
 447   0.0000       4.326774       117.7375 
 448   0.0000       4.336270       117.9959 
 449   0.0000       4.341028       118.1254 
 450   0.0000       4.343880       118.2030 
 451   0.0000       4.393378       119.5499 
 452   0.0000       4.399882       119.7269 
 453   0.0000       4.419216       120.2530 
 454   0.0000       4.436206       120.7153 
 455   0.0000       4.466836       121.5488 
 456   0.0000       4.495528       122.3295 
 457   0.0000       4.499516       122.4380 
 458   0.0000       4.516249       122.8934 
 459   0.0000       4.550654       123.8296 
 460   0.0000       4.574199       124.4703 
 461   0.0000       4.577465       124.5592 
 462   0.0000       4.585037       124.7652 
 463   0.0000       4.591543       124.9422 
 464   0.0000       4.618733       125.6821 
 465   0.0000       4.639276       126.2411 
 466   0.0000       4.647270       126.4587 
 467   0.0000       4.691988       127.6755 
 468   0.0000       4.719703       128.4296 
 469   0.0000       4.724534       128.5611 
 470   0.0000       4.730987       128.7367 
 471   0.0000       4.750861       129.2775 
 472   0.0000       4.751894       129.3056 
 473   0.0000       4.793905       130.4488 
 474   0.0000       4.800467       130.6274 
 475   0.0000       4.812334       130.9503 
 476   0.0000       4.842047       131.7588 
[...]
 2 O  pz              0.0       0.0       0.2       0.0       0.0       0.0
 2 O  px              0.0       0.0       0.2       0.0       0.0       0.0
 2 O  py              0.0       0.0       0.2       0.0       0.0       0.0
 3 N  s               0.0       0.0       0.0       0.0       0.0      98.9
 3 N  pz              0.0       0.0       0.0       0.0       0.0       0.1
 4 C  s               0.0       0.1       3.1      86.4       2.8       0.0
 4 C  pz              0.0       0.0       0.0       0.2       0.0       0.0
 5 C  s               0.5       0.2       1.5       1.4       0.0       0.0
 6 C  s               0.1       0.0       0.6       1.3      19.1       0.0
 6 C  pz              0.1       0.2       0.0       0.0       0.0       0.0
 6 C  px              0.0       0.0       0.0       0.1       0.0       0.0
 6 C  py              0.2       0.3       0.0       0.0       0.0       0.0
 6 C  dx2y2           0.0       0.0       0.0       0.1       0.1       0.0
 6 C  dxy             0.1       0.1       0.0       0.0       0.0       0.0
 7 C  s               3.9      44.6       1.0       0.2      19.6       0.0
 7 C  px              0.1       0.0       0.0       0.0       0.0       0.0
 8 C  s               4.0      41.9       0.9       0.2      20.1       0.0
 8 C  px              0.2       0.0       0.0       0.0       0.0       0.0
 9 C  s               0.2       2.1      88.6       3.2       0.1       0.0
 9 C  py              0.0       0.0       0.3       0.0       0.0       0.0
 9 C  dxz             0.0       0.0       0.2       0.0       0.0       0.0
10 C  s              42.1       3.5       0.2       1.4      15.7       0.0
11 C  s              46.0       5.4       0.1       1.0      15.7       0.0
12 C  s               0.0       0.0       0.0       1.4       4.6       0.0
12 C  pz              0.3       0.0       0.0       0.0       0.0       0.0
12 C  py              0.5       0.0       0.0       0.0       0.0       0.0
13 H  s               0.0       0.0       0.0       0.7       0.0       0.0
13 H  pz              0.0       0.0       0.0       0.2       0.0       0.0
14 H  s               0.0       0.0       0.1       0.7       0.0       0.0
14 H  py              0.0       0.0       0.0       0.2       0.0       0.0
16 H  s               0.1       0.1       0.0       0.0       0.0       0.0
17 H  s               0.1       0.1       0.0       0.0       0.0       0.0
18 H  s               0.0       0.0       0.0       0.0       0.0       0.2
18 H  py              0.0       0.0       0.0       0.0       0.0       0.1
19 H  s               0.0       0.0       0.0       0.0       0.0       0.2
20 H  s               0.2       0.0       0.0       0.0       0.0       0.0
21 H  s               0.2       0.0       0.0       0.0       0.0       0.0

                    558       559   
                  43.89462  43.99406
                   0.00000   0.00000
                  --------  --------
 1 O  s               3.5      96.2
 2 O  s              96.4       3.5


                      *****************************
                      * MAYER POPULATION ANALYSIS *
                      *****************************

  NA   - Mulliken gross atomic population
  ZA   - Total nuclear charge
  QA   - Mulliken gross atomic charge
  VA   - Mayer's total valence
  BVA  - Mayer's bonded valence
  FA   - Mayer's free valence

  ATOM       NA         ZA         QA         VA         BVA        FA
  0 Br    35.1078    35.0000    -0.1078     1.1610     1.1610    -0.0000
  1 O      8.3061     8.0000    -0.3061     2.1823     2.1823     0.0000
  2 O      8.4352     8.0000    -0.4352     2.0476     2.0476     0.0000
  3 N      7.4248     7.0000    -0.4248     3.0127     3.0127    -0.0000
  4 C      6.1114     6.0000    -0.1114     3.7991     3.7991     0.0000
  5 C      5.8614     6.0000     0.1386     3.7545     3.7545     0.0000
  6 C      6.0048     6.0000    -0.0048     3.6180     3.6180    -0.0000
  7 C      6.1774     6.0000    -0.1774     3.9095     3.9095    -0.0000
  8 C      6.1985     6.0000    -0.1985     3.9489     3.9489     0.0000
  9 C      5.6557     6.0000     0.3443     4.2554     4.2554     0.0000
 10 C      6.1487     6.0000    -0.1487     3.8846     3.8846    -0.0000
 11 C      6.1525     6.0000    -0.1525     3.8837     3.8837    -0.0000
 12 C      5.9706     6.0000     0.0294     3.8249     3.8249    -0.0000
 13 H      0.9010     1.0000     0.0990     1.0203     1.0203     0.0000
 14 H      0.8964     1.0000     0.1036     1.0060     1.0060     0.0000
 15 H      0.8899     1.0000     0.1101     1.0276     1.0276     0.0000
 16 H      0.8362     1.0000     0.1638     0.9987     0.9987    -0.0000
 17 H      0.8369     1.0000     0.1631     0.9934     0.9934     0.0000
 18 H      0.8342     1.0000     0.1658     1.0077     1.0077     0.0000
 19 H      0.8434     1.0000     0.1566     1.0272     1.0272    -0.0000
 20 H      0.8377     1.0000     0.1623     0.9914     0.9914     0.0000
 21 H      0.8381     1.0000     0.1619     0.9919     0.9919    -0.0000
 22 H      0.7311     1.0000     0.2689     0.9900     0.9900     0.0000

  Mayer bond orders larger than 0.100000
B(  0-Br, 12-C ) :   1.0433 B(  1-O ,  9-C ) :   1.2475 B(  1-O , 22-H ) :   0.9199 
B(  2-O ,  9-C ) :   1.9640 B(  3-N ,  5-C ) :   0.9760 B(  3-N , 18-H ) :   0.9825 
B(  3-N , 19-H ) :   0.9832 B(  4-C ,  5-C ) :   0.9188 B(  4-C ,  6-C ) :   0.8848 
B(  4-C , 13-H ) :   0.9887 B(  4-C , 14-H ) :   0.9803 B(  5-C ,  9-C ) :   0.9278 
B(  5-C , 15-H ) :   0.9749 B(  6-C ,  7-C ) :   1.3206 B(  6-C ,  8-C ) :   1.3423 
B(  7-C , 10-C ) :   1.4370 B(  7-C , 16-H ) :   0.9698 B(  8-C , 11-C ) :   1.4495 
B(  8-C , 17-H ) :   0.9695 B( 10-C , 12-C ) :   1.3475 B( 10-C , 20-H ) :   0.9677 
B( 11-C , 12-C ) :   1.3376 B( 11-C , 21-H ) :   0.9677 

-------
TIMINGS
-------

Total SCF time: 0 days 0 hours 3 min 19 sec 

Total time                  ....     199.574 sec
Sum of individual times     ....     188.758 sec  ( 94.6%)

SCF preparation             ....       0.750 sec  (  0.4%)
Fock matrix formation       ....     185.338 sec  ( 92.9%)
  Startup                   ....       0.025 sec  (  0.0% of F)
  Split-RI-J                ....      10.407 sec  (  5.6% of F)
  Chain of spheres X        ....     158.397 sec  ( 85.5% of F)
  XC integration            ....      15.146 sec  (  8.2% of F)
    XC Preparation          ....       0.000 sec  (  0.0% of XC)
    Basis function eval.    ....       3.693 sec  ( 24.4% of XC)
    Density eval.           ....       4.266 sec  ( 28.2% of XC)
    XC-Functional eval.     ....       0.291 sec  (  1.9% of XC)
    XC-Potential eval.      ....       6.223 sec  ( 41.1% of XC)
  CPCM terms                ....      11.985 sec  (  6.5% of F)
Diagonalization             ....       0.000 sec  (  0.0%)
Density matrix formation    ....       0.105 sec  (  0.1%)
Total Energy calculation    ....       0.054 sec  (  0.0%)
Population analysis         ....       1.188 sec  (  0.6%)
Orbital Transformation      ....       0.208 sec  (  0.1%)
Orbital Orthonormalization  ....       0.000 sec  (  0.0%)
DIIS solution               ....       0.727 sec  (  0.4%)
  MO trafo                  ....       0.109 sec  ( 15.0 % of DIIS)
  Orb grad                  ....       0.000 sec  (  0.0 % of DIIS)
  Energy W gradient         ....       0.000 sec  (  0.0 % of DIIS)
  DIIS error                ....       0.131 sec  ( 18.0 % of DIIS)
  DIIS work                 ....       0.365 sec  ( 50.2 % of DIIS)
  Form Q                    ....       0.000 sec  (  0.0 % of DIIS)
  Form QpQm                 ....       0.000 sec  (  0.0 % of DIIS)
  Exp/Cayley                ....       0.000 sec  (  0.0 % of DIIS)
  Orb update                ....       0.000 sec  (  0.0 % of DIIS)
  Wake-sleep                ....       0.012 sec  (  1.7 % of DIIS)
SOSCF solution              ....       0.388 sec  (  0.2%)
  MO trafo                  ....       0.178 sec  ( 46.0 % of SOSCF)
  Orb grad                  ....       0.006 sec  (  1.5 % of SOSCF)
  Rot update                ....       0.009 sec  (  2.2 % of SOSCF)
  Step                      ....       0.187 sec  ( 48.3 % of SOSCF)
Finished LeanSCF after 199.7 sec

Maximum memory used throughout the entire LEANSCF-calculation: 77.8 MB


-------------------------------------------------------------------------------
                          DFT DISPERSION CORRECTION                            
                                                                               
                              DFTD3 V3.1  Rev 1                                
                          USING Becke-Johnson damping                          
-------------------------------------------------------------------------------
The B3LYP functional is recognized
Active option DFTDOPT                   ...         4   

molecular C6(AA) [au] = 7167.740303 


            DFT-D V3
 parameters
 s6 scaling factor         :     1.0000 
 a1 scaling factor         :     0.3981 
 s8 scaling factor         :     1.9889 
 a2 scaling factor         :     4.4211 
 ad hoc parameters k1-k3   :    16.0000     1.3333    -4.0000 

 Edisp/kcal,au: -30.075169305420  -0.047927827930 
 E6   /kcal   : -13.891982920 
 E8   /kcal   : -16.183186385 
 % E8         :  53.809128124 

-------------------------   ----------------
Dispersion correction           -0.047927828
-------------------------   ----------------


-------------------------   --------------------
FINAL SINGLE POINT ENERGY     -3128.209091288967
-------------------------   --------------------

                                *** OPTIMIZATION RUN DONE ***



           ************************************************************
           *        Program running with 2 parallel MPI-processes     *
           *              working on a common directory               *
           ************************************************************

------------------------------------------------------------------------------
                              ORCA PROPERTY CALCULATIONS
------------------------------------------------------------------------------

GBWName                                 ... /kaggle/working/Phe-Br-1/Phe-Br_InterFrag.gbw
Number of atoms                         ...     23
Number of basis functions               ...    560
Max core memory                         ...   3000 MB

Electric properties:
Dipole moment                           ... YES
Quadrupole moment                       ...  NO
Static polarizability (Dipole/Dipole)   ...  NO
Static polarizability (Dipole/Quad.)    ...  NO
Static polarizability (Quad./Quad.)     ...  NO
Static polarizability (Velocity)        ...  NO
Static hyperpolarizability              ...  NO

Atomic electric properties:
Dipole moment                           ...  NO
Quadrupole moment                       ...  NO
Static polarizability                   ...  NO

Choice of electric origin               ... Center of mass
Position of electric origin             ...     2.179295    -0.587984    -0.277733

General magnetic properties:
Magnetizability                         ...  NO

EPR properties:
g-Tensor (aka g-matrix)                 ...  NO
Zero-Field splitting spin-orbit         ...  NO
Zero-field splitting spin-spin          ...  NO
Hyperfine couplings                     ...  NO (   0 nuclei)
Quadrupole couplings                    ...  NO (   0 nuclei)
Contact density                         ...  NO (   0 nuclei)

NMR properties:
Chemical shifts                         ...  NO (   0 nuclei)
Spin-rotation constants                 ...  NO (   0 nuclei)
Spin-spin couplings                     ...  NO (   0 nuclei,    0 pairs)

Choice of magnetic origin               ... GIAO
Position of magnetic origin             ...     0.000000     0.000000     0.000000

Properties with geometric perturbations:
SCF Hessian                             ...  NO
IR spectrum                             ...  NO
VCD spectrum                            ...  NO
X-ray spectroscopy properties:
SCF XES/XAS/RIXS spectra                ...  NO

SCF SOC stabilization energy            ...  NO
Diagonal Born-Oppenheimer correction    ...  NO

-------------
DIPOLE MOMENT
-------------

Method             : SCF
Type of density    : Electron Density
Multiplicity       :   1
Irrep              :   0
Energy             : -3128.1611634610371766 Eh
Basis              : AO
                                X                 Y                 Z
Electronic contribution:     48.961984797     -14.121282139      -5.438495850
Nuclear contribution   :    -48.999228058      15.189532879       5.603933246
                        -----------------------------------------
Total Dipole Moment    :     -0.037243261       1.068250739       0.165437396
                        -----------------------------------------
Magnitude (a.u.)       :      1.081626661
Magnitude (Debye)      :      2.749276484



--------------------
Rotational spectrum 
--------------------
 
Rotational constants in cm-1:             0.054306             0.007572             0.007213 
Rotational constants in MHz :          1628.044137           227.010594           216.236621 

Dipole components along the rotational axes: 
x,y,z [a.u.] :     0.208126     1.061250     0.018683 
x,y,z [Debye]:     0.529015     2.697482     0.047488 

 

Dipole moment calculation done in   0.0 sec 

Maximum memory used throughout the entire PROP-calculation: 50.0 MB

--------------------------------
SUGGESTED CITATIONS FOR THIS RUN
--------------------------------

Below you find a list of papers that are relevant to this ORCA run
We neither can nor want to force you to cite these papers, but we appreciate if you do
You receive ORCA, which is the product of decades of hard work by many enthusiastic individuals, for free
The only thing we kindly ask in return is that you cite our papers,
We deeply appreciate it, if you show your appreciation for ORCA by not just citing the generic ORCA reference.

Please note that relegating all ORCA citations to the supporting information does *not* help us.
SI sections are not indexed - citations you put there will not count into any citation statistics
But we need these citations in order to attract the funding resources that allow us to do what we are doing

Therefore, if you are a happy ORCA user, please consider citing a few of the papers listed below in the main body of your paper

In addition to the list printed below, the program has created the file /kaggle/working/Phe-Br-1/Phe-Br_InterFrag.bibtex that contains the list in bibtex format
You can import this file easily into all common literature databanks and citation aid programs

It goes without saying that in many instances, there are alternative algorithms to achieve similar
results as the ones you have gotten from ORCA. It is, of course, also the case that in some instances
ORCA just re-implements algorithms worked out by others. We are fully aware of that and we are also
fully appreciative of our colleagues work. Hence this citation list should not be read as indicating
that the listed papers, which are focused on our own work, are the only ones worth citing. It simply
meant to make it easier for users to cite ORCA specific papers. It is not a substitute for doing your
own literature research and citing the relevant literature in a scientifically appropriate manner.

List of essential papers. We consider these as the minimum necessary citations

  1. Neese, F.
     Software update: the ORCA program system, version 6.0
     WIRES Comput. Molec. Sci. 2025 15(1), e70019
     doi.org/10.1002/wcms.70019

List of papers to cite with high priority. The work reported in these papers was absolutely
necessary for this run to complete.
Our perspective: the developers of density functionals and basis sets usually get cited in chemistry papers
Good! But without the algorithms to do something with them, the functionals or basis sets would not do anything.
Hence, in our opinion, the algorithm design and method developments papers are equally worthy of getting cited

  1. Neese, F.
     An improvement of the resolution of the identity approximation for the formation of the Coulomb matrix
     J. Comp. Chem. 2003 24(14), 1740-1747
     doi.org/10.1002/jcc.10318
  2. Neese, F.; Wennmohs, F.; Hansen, A.; Becker, U.
     Efficient, approximate and parallel Hartree-Fock and hybrid DFT calculations. A 'chain-of-spheres' algorithm for the Hartree-Fock exchange
     Chem. Phys. 2009 356(1-3), 98-109
     doi.org/10.1016/j.chemphys.2008.10.036
  3. Grimme, S.; Antony, J.; Ehrlich, S.; Krieg, H.
     A consistent and accurate ab initio parametrization of density functional dispersion correction (DFT-D) for the 94 elements H-Pu
     J. Chem. Phys. 2010 132 , 154104
     doi.org/10.1063/1.3382344
  4. Grimme, S.; Ehrlich, S.; Goerigk, L.
     Effect of the damping function in dispersion corrected density functional theory
     J. Comput. Chem. 2011 32(7), 1456-1465
     doi.org/10.1002/jcc.21759
  5. Garcia-Rates, M.; Neese, F.
     Effect of the Solute Cavity on the Solvation Energy and its Derivatives within the Framework of the Gaussian Charge Scheme
     J. Comput. Chem. 2020 41 , 922-939
     doi.org/10.1002/jcc.26139
  6. Helmich-Paris, B.; de Souza, B.; Neese, F.; Izsák, R.
     An improved chain of spheres for exchange algorithm
     J. Chem. Phys. 2021 155(10), 104109
     doi.org/10.1063/5.0058766
  7. Neese, F.
     The SHARK Integral Generation and Digestion System
     J. Comp. Chem. 2022 44(3), 381
     doi.org/10.1002/jcc.26942

List of suggested additional citations. These are papers that are important in the 'surrounding' of 
of this run, or papers that preceded the highly important papers. If you like your results we are grateful for a citation.

  1. Izsak, R.; Neese, F.
     An overlap fitted chain of spheres exchange method
     J. Chem. Phys. 2011 135 , 144105
     doi.org/10.1063/1.3646921
  2. Izsak, R.; Hansen, A.; Neese, F.
     The resolution of identity and chain of spheres approximations for the LPNO-CCSD singles Fock term
     Molec. Phys. 2012 110 , 2413-2417
     doi.org/10.1080/00268976.2012.687466
  3. Neese, F.
     The ORCA program system
     WIRES Comput. Molec. Sci. 2012 2(1), 73-78
     doi.org/10.1002/wcms.81
  4. Izsak, R.; Neese, F.; Klopper, W.
     Robust fitting techniques in the chain of spheres approximation to the Fock exchange: The role of the complementary space
     J. Chem. Phys. 2013 139 , 
     doi.org/10.1063/1.4819264
  5. Neese, F.
     Software update: the ORCA program system, version 4.0
     WIRES Comput. Molec. Sci. 2018 8(1), 1-6
     doi.org/10.1002/wcms.1327
  6. Neese, F.; Wennmohs, F.; Becker, U.; Riplinger, C.
     The ORCA quantum chemistry program package
     J. Chem. Phys. 2020 152(22), 224108
     doi.org/10.1063/5.0004608
  7. Neese, F.
     Software update: The ORCA program system—Version 5.0
     WIRES Comput. Molec. Sci. 2022 12(1), e1606
     doi.org/10.1002/wcms.1606

List of optional additional citations

  1. Neese, F.
     Approximate second-order SCF convergence for spin unrestricted wavefunctions
     Chem. Phys. Lett. 2000 325(1-3), 93-98
     doi.org/10.1016/s0009-2614(00)00662-x

Timings for individual modules:

Sum of individual times          ...     3305.567 sec (=  55.093 min)
Startup calculation              ...       45.759 sec (=   0.763 min)   1.4 %
SCF iterations                   ...     2270.957 sec (=  37.849 min)  68.7 %
Property calculations            ...        0.572 sec (=   0.010 min)   0.0 %
SCF Gradient evaluation          ...      988.198 sec (=  16.470 min)  29.9 %
Geometry relaxation              ...        0.081 sec (=   0.001 min)   0.0 %
                             ****ORCA TERMINATED NORMALLY****
TOTAL RUN TIME: 0 days 0 hours 55 minutes 10 seconds 481 msec
