
                                 *****************
                                 * O   R   C   A *
                                 *****************

                                            #,                                       
                                            ###                                      
                                            ####                                     
                                            #####                                    
                                            ######                                   
                                           ########,                                 
                                     ,,################,,,,,                         
                               ,,#################################,,                 
                          ,,##########################################,,             
                       ,#########################################, ''#####,          
                    ,#############################################,,   '####,        
                  ,##################################################,,,,####,       
                ,###########''''           ''''###############################       
              ,#####''   ,,,,##########,,,,          '''####'''          '####       
            ,##' ,,,,###########################,,,                        '##       
           ' ,,###''''                  '''############,,,                           
         ,,##''                                '''############,,,,        ,,,,,,###''
      ,#''                                            '''#######################'''  
     '                                                          ''''####''''         
             ,#######,   #######,   ,#######,      ##                                
            ,#'     '#,  ##    ##  ,#'     '#,    #''#        ,####,    ,#,          
            ##       ##  ##   ,#'  ##            #'  '#       #'       ,# #          
            ##       ##  #######   ##           ,######,      #####,      #          
            '#,     ,#'  ##    ##  '#,     ,#' ,#      #,     #,   #      #          
             '#######'   ##     ##  '#######'  #'      '#     '####' #    #          



                #########################################################
                #                        -***-                          #
                #          Department of theory and spectroscopy        #
                #                                                       #
                #                      Frank Neese                      #
                #                                                       #
                #     Directorship, Architecture, Infrastructure        #
                #                    SHARK, DRIVERS                     #
                #        Core code/Algorithms in most modules           #
                #                                                       #
                #        Max Planck Institute fuer Kohlenforschung      #
                #                Kaiser Wilhelm Platz 1                 #
                #                 D-45470 Muelheim/Ruhr                 #
                #                      Germany                          #
                #                                                       #
                #                  All rights reserved                  #
                #                        -***-                          #
                #########################################################


                         Program Version 6.1.1  -  RELEASE   -
                                (GIT: $487d211c$)
                          ($2025-11-21 10:33:24 +0100$)
                                                                         
                                  - NO-DMRG VERSION -                    
                                                                         


 With contributions from (in alphabetic order):
[Max-Planck-Institut fuer Kohlenforschung]                               
  Daniel Aravena         : Magnetic Suceptibility                        
  Michael Atanasov       : Ab Initio Ligand Field Theory (pilot matlab implementation)
  Alexander A. Auer      : GIAO ZORA, VPT2 properties, NMR spectrum      
  Ute Becker             : All parallelization in ORCA, NUMFREQ, NUMCALC 
  Giovanni Bistoni       : ED, misc. LED, open-shell LED, HFLD           
  Dmytro Bykov           : pre 5.0 version of the SCF Hessian            
  Marcos Casanova-Páez   : Triplet and SCS-CIS(D). UHF-(DLPNO)-IP/EA/STEOM-CCSD. UHF-CVS-IP/STEOM-CCSD   
  Vijay G. Chilkuri      : MRCI spin determinant printing, contributions to CSF-ICE 
  Pauline Colinet        : FMM embedding                                 
  Dipayan Datta          : RHF DLPNO-CCSD density                        
  Achintya Kumar Dutta   : EOM-CC, STEOM-CC                              
  Nicolas Foglia         : Exact transition moments, OPA infrastructure, MCD improvements    
  Dmitry Ganyushin       : Spin-Orbit,Spin-Spin,Magnetic field MRCI      
  Miquel Garcia-Rates    : C-PCM and meta-GGA Hessian, CCSD/C-PCM, Gaussian charge scheme 
  Tiago L. C. Gouveia    : GS-ROHF, GS-ROCIS                             
  Yang Guo               : DLPNO-NEVPT2, F12-NEVPT2, CIM, IAO-localization        
  Andreas Hansen         : Spin unrestricted coupled pair/coupled cluster methods 
  Ingolf Harden          : AUTO-CI MPn and infrastructure                
  Benjamin Helmich-Paris : MC-RPA, TRAH-(SCF,CASSCF), AVAS, COSX integrals, SCF dyn. polar., MC-PDFT, srDFT 
  Lee Huntington         : MR-EOM, pCC                                   
  Robert Izsak           : Overlap fitted RIJCOSX, COSX-SCS-MP3, EOM     
  Riya Kayal             : Wick's Theorem for AUTO-CI, AUTO-CI UHF-CCSDT 
  Emily Kempfer          : AUTO-CI RHF CISDT and CCSDT, approximate NEVPT4
  Christian Kollmar      : KDIIS, OOCD, Brueckner-CCSD(T), CCSD density, CASPT2, CASPT2-K, improved NEVPT2 
  Axel Koslowski         : Symmetry handling                             
  Simone Kossmann        : meta-GGA functionals, TD-DFT gradient, OOMP2, (MP2 Hessian; deprecated post 5.0) 
  Lucas Lang             : DCDCAS, Hyperfine gauge corrections, ICE-SOC+SSC
  Marvin Lechner         : AUTO-CI (C++ implementation), FIC-MRCC        
  Spencer Leger          : CASSCF response                               
  Dagmar Lenk            : GEPOL surface, SMD, ORCA-2-JSON               
  Dimitrios Liakos       : Extrapolation schemes; Compound Job, Property file
  Dimitrios Manganas     : Further ROCIS development; embedding schemes. LFT, Crystal Embedding 
  Dimitrios Pantazis     : SARC Basis sets                               
  Anastasios Papadopoulos: AUTO-CI, single reference methods and gradients 
  Taras Petrenko         : pre 6.0 DFT Hessian and TD-DFT gradient,  ECA, NRVS 
  Petra Pikulova         : Analytic Raman intensities                    
  Peter Pinski           : DLPNO-MP2, DLPNO-MP2 Gradient                 
  Shashank Vittal Rao    : ES-AILFT, MagRelax                            
  Christoph Reimann      : Effective Core Potentials                     
  Marius Retegan         : Local ZFS, SOC                                
  Christoph Riplinger    : Optimizer, TS searches, QM/MM, DLPNO-CCSD(T), (RO)-DLPNO pert. Triples 
  Michael Roemelt        : Original ROCIS implementation, recursive CI coupling coefficients
  Masaaki Saitow         : Open-shell DLPNO-CCSD energy and density      
  Barbara Sandhoefer     : DKH picture change effects                    
  Yorick L. A. Schmerwitz: GMF and freeze-and-release deltaSCF, NEB S-IDPP initial path                    
  Kantharuban Sivalingam : CASSCF convergence/infrastructure, NEVPT2, NEVPT3, NEVPT4(SD), FIC-MRCI and CEPA variants
  Bernardo de Souza      : ESD, SOC TD-DFT                               
  Georgi L. Stoychev     : AutoAux, RI-MP2 NMR, DLPNO-MP2 response, X2C  
  Van Anh Tran           : RI-MP2 g-tensors                              
  Willem Van den Heuvel  : Paramagnetic NMR                              
  Zikuan Wang            : NOTCH, Electric field optimization            
  Frank Wennmohs         : Technical directorship and infrastructure     
  Hang Xu                : AUTO-CI-Response properties                   
                                                                         
[FACCTs GmbH]                                                            
  Markus Bursch, Nicolas Foglia, Miquel Garcia-Rates, Ingolf Harden, Hagen Neugebauer, Anastasios Papadopoulos, 
  Christoph Riplinger, Bernardo de Souza, Georgi L. Stoychev                                                    
                                                                 
  APM, various basis sets, CI-OPT, improved COSX, DLPNO-Multilevel,           
  DOCKER, DRACO, updates on ESD, Fragmentator, GOAT, IRC, LR-CPCM, L-BFGS, MBIS, meta-GGA TD-DFT gradient, ML-optimized integration grids, 
  MM, NACMEs, nearIR, NEB, NEB-TS, NL-DFT gradient (VV10), 2- and 3-layer-ONIOM, interface openCOSMO-RS, QMMM,   
  Crystal-QMMM, RESP, rigid body optimization, SF, symmetry and pop. for TD-DFT, various functionals, SOLVATOR                                   
                                                                         
[Other institutions]                                                     
  V. Asgeirsson          : NEB                                           
  Christoph Bannwarth    : sTDA-DFT, sTD-DFT, PBEh-3c, B97-3c, D3        
  Giovanni Bistoni       : ETS/NOCV, ADLD/ADEX, COVALED                  
  Martin Brehm           : Molecular dynamics                            
  Ronald Cardenas        : ETS/NOCV                                      
  Martina Colucci        : COVALED                                       
  Sebastian Ehlert       : rSCAN, r2SCAN, r2SCAN-3c, D4, dhf basis sets  
  Marvin Friede          : D4 for Fr, Ra, Ac-Lr                          
  Lars Goerigk           : TD-DFT with DH, B97 family of functionals     
  Stefan Grimme          : VdW corrections, initial TS optimization, DFT functionals, gCP, sTDA/sTD-DF 
  Waldemar Hujo          : DFT-NL                                        
  H. Jonsson             : NEB                                           
  Holger Kruse           : gCP                                           
  Marcel Mueller         : wB97X-3c, vDZP basis set                      
  Hagen Neugebauer       : wr2SCAN, Native XTB                           
  Gianluca Regni         : ADLD/ADEX                                     
  Tobias Risthaus        : pre 6.0 range-separated hybrid DFT and stability analysis
  Lukas Wittmann         : regularized MP2, r2SCAN double-hybrids, wr2SCAN        
                                                                         
We gratefully acknowledge several colleagues who have allowed us to      
interface, adapt or use parts of their codes:                            
  Ed Valeev, F. Pavosevic, A. Kumar             : LibInt (2-el integral package), F12 methods 
  Garnet Chan, S. Sharma, J. Yang, R. Olivares  : DMRG                   
  Ulf Ekstrom                                   : XCFun DFT Library      
  Mihaly Kallay                                 : mrcc  (arbitrary order and MRCC methods)
  Frank Weinhold                                : gennbo (NPA and NBO analysis)           
  Simon Mueller                                 : openCOSMO-RS                            
  Christopher J. Cramer and Donald G. Truhlar   : smd solvation model                     
  S Lehtola, MJT Oliveira, MAL Marques          : LibXC Library                           
  Liviu Ungur et al                             : ANISO software                          


 Your calculation uses the libint2 library for the computation of 2-el integrals
 For citations please refer to: http://libint.valeyev.net

 Your ORCA version has been built with support for libXC version: 7.0.0
 For citations please refer to: https://libxc.gitlab.io

 This ORCA versions uses:
   CBLAS   interface :  Fast vector & matrix operations
   LAPACKE interface :  Fast linear algebra routines
   SCALAPACK package :  Parallel linear algebra routines
   Shared memory     :  Shared parallel matrices
   BLAS/LAPACK       :  OpenBLAS 0.3.29  USE64BITINT DYNAMIC_ARCH NO_AFFINITY SkylakeX SINGLE_THREADED
        Core in use  :  SkylakeX
   Copyright (c) 2011-2014, The OpenBLAS Project


  ***********************************
  * Starting time: Mon Mar 23 19:07:34 2026
  * Host name:     7ae43bb337bd
  * Process ID:    607
  * Working dir.:  /kaggle/working
  ***********************************

NOTE: MaxCore=3000 MB was set to SCF,MP2,MDCI,CIPSI,MRCI,RASCI and CIS
      => If you want to overwrite this, your respective input block should be placed after the MaxCore statement
Your calculation utilizes the atom-pairwise dispersion correction
with the Becke-Johnson damping scheme (D3BJ)


Warning: RI is on but no J-basis has been assigned. Assigning Def2/J (nothing to worry about!)
================================================================================

----- Orbital basis set information -----
Your calculation utilizes the basis: def2-TZVPP
   F. Weigend and R. Ahlrichs, Phys. Chem. Chem. Phys. 7, 3297 (2005).

----- AuxJ basis set information -----
Your calculation utilizes the auxiliary basis: def2/J
   H-Rn: F. Weigend, Phys. Chem. Chem. Phys. 8, 1057 (2006).
   Fr-Lr: K. Eichkorn, F. Weigend, O. Treutler, R. Ahlrichs; Theor. Chem. Acc. 97, 119 (1997).

================================================================================
                                        WARNINGS
                       Please study these warnings very carefully!
================================================================================


================================================================================
                                       INPUT FILE
================================================================================
NAME = /kaggle/working/Phe-Br-2/Phe-Br_InterFrag.inp
|  1> 
|  2> !RKS B3LYP def2-TZVPP TightSCF D3BJ # 6-31G(d,p)
|  3> 
|  4> %pal nprocs 2 end
|  5> %maxcore 3000
|  6> 
|  7> %elprop
|  8>   Polar 1      # polarizability via CP-SCF
|  9> end
| 10> 
| 11> %output
| 12>   PrintLevel Normal
| 13>   Print[ P_OrbEn ] 2
| 14> end
| 15> 
| 16> *xyz 0 1
| 17>   Br     4.543399   -1.043628   -0.439785
| 18>   O     -1.497906   -1.219363   -1.427495
| 19>   O     -2.896853   -1.405740    0.315702
| 20>   N     -3.486422    1.329222   -0.089865
| 21>   C     -1.126192    1.157608    0.775527
| 22>   C     -2.149488    0.793330   -0.332109
| 23>   C      0.262048    0.643598    0.515171
| 24>   C      0.719870   -0.524783    1.123342
| 25>   C      1.104369    1.299357   -0.383785
| 26>   C     -2.243182   -0.712226   -0.435633
| 27>   C      1.984881   -1.033005    0.848640
| 28>   C      2.371506    0.808409   -0.672204
| 29>   C      2.796217   -0.357374   -0.050128
| 30>   H     -1.503797    0.771180    1.723283
| 31>   H     -1.118886    2.246677    0.835116
| 32>   H     -1.782684    1.177771   -1.281278
| 33>   H      0.080463   -1.049917    1.821189
| 34>   H      0.768930    2.208304   -0.866599
| 35>   H     -3.406426    2.333092    0.032850
| 36>   H     -3.829664    0.962238    0.792653
| 37>   H      2.324617   -1.938115    1.330761
| 38>   H      3.012980    1.329508   -1.367931
| 39>   H     -1.556480   -2.189042   -1.401921
| 40> 
| 41> *
| 42> 
| 43>                          ****END OF INPUT****
================================================================================

                       ****************************
                       * Single Point Calculation *
                       ****************************

---------------------------------
CARTESIAN COORDINATES (ANGSTROEM)
---------------------------------
  Br     4.543399   -1.043628   -0.439785
  O     -1.497906   -1.219363   -1.427495
  O     -2.896853   -1.405740    0.315702
  N     -3.486422    1.329222   -0.089865
  C     -1.126192    1.157608    0.775527
  C     -2.149488    0.793330   -0.332109
  C      0.262048    0.643598    0.515171
  C      0.719870   -0.524783    1.123342
  C      1.104369    1.299357   -0.383785
  C     -2.243182   -0.712226   -0.435633
  C      1.984881   -1.033005    0.848640
  C      2.371506    0.808409   -0.672204
  C      2.796217   -0.357374   -0.050128
  H     -1.503797    0.771180    1.723283
  H     -1.118886    2.246677    0.835116
  H     -1.782684    1.177771   -1.281278
  H      0.080463   -1.049917    1.821189
  H      0.768930    2.208304   -0.866599
  H     -3.406426    2.333092    0.032850
  H     -3.829664    0.962238    0.792653
  H      2.324617   -1.938115    1.330761
  H      3.012980    1.329508   -1.367931
  H     -1.556480   -2.189042   -1.401921

----------------------------
CARTESIAN COORDINATES (A.U.)
----------------------------
  NO LB      ZA    FRAG     MASS         X           Y           Z
   0 Br   35.0000    0    79.900    8.585780   -1.972171   -0.831073
   1 O     8.0000    0    15.999   -2.830632   -2.304262   -2.697575
   2 O     8.0000    0    15.999   -5.474259   -2.656464    0.596590
   3 N     7.0000    0    14.007   -6.588383    2.511866   -0.169820
   4 C     6.0000    0    12.011   -2.128194    2.187562    1.465534
   5 C     6.0000    0    12.011   -4.061944    1.499176   -0.627595
   6 C     6.0000    0    12.011    0.495199    1.216224    0.973532
   7 C     6.0000    0    12.011    1.360357   -0.991696    2.122809
   8 C     6.0000    0    12.011    2.086955    2.455429   -0.725249
   9 C     6.0000    0    12.011   -4.239000   -1.345912   -0.823227
  10 C     6.0000    0    12.011    3.750881   -1.952097    1.603697
  11 C     6.0000    0    12.011    4.481497    1.527672   -1.270281
  12 C     6.0000    0    12.011    5.284084   -0.675339   -0.094728
  13 H     1.0000    0     1.008   -2.841764    1.457319    3.256533
  14 H     1.0000    0     1.008   -2.114388    4.245604    1.578141
  15 H     1.0000    0     1.008   -3.368785    2.225665   -2.421265
  16 H     1.0000    0     1.008    0.152053   -1.984056    3.441548
  17 H     1.0000    0     1.008    1.453067    4.173090   -1.637635
  18 H     1.0000    0     1.008   -6.437212    4.408905    0.062078
  19 H     1.0000    0     1.008   -7.237016    1.818366    1.497897
  20 H     1.0000    0     1.008    4.392889   -3.662507    2.514774
  21 H     1.0000    0     1.008    5.693707    2.512406   -2.585015
  22 H     1.0000    0     1.008   -2.941321   -4.136690   -2.649247

--------------------------------
INTERNAL COORDINATES (ANGSTROEM)
--------------------------------
 Br     0   0   0     0.000000000000     0.00000000     0.00000000
 O      1   0   0     6.124036245594     0.00000000     0.00000000
 O      2   1   0     2.242883161412   119.49406989     0.00000000
 N      3   2   1     2.827029065767    86.45608080   105.45743646
 C      4   3   2     2.519730210074    71.91020896   290.40896769
 C      4   3   2     1.460566640573    58.52957030   325.50669297
 C      5   4   3     1.503064145150   145.99025192    63.02051081
 C      7   5   4     1.394484532035   120.94470811   259.41439244
 C      7   5   4     1.395581034214   120.55355328    76.88895169
 C      3   2   1     1.213569827683    30.15957153    87.08769771
 C      8   7   5     1.390684586888   121.24413123   177.57801712
 C      9   7   5     1.389191000199   121.21225727   182.41964277
 C     11   8   7     1.386552296483   118.83143552   359.90518485
 H      5   4   3     1.090941598228    89.90124980   294.59722826
 H      5   4   3     1.090722473097    87.53740444   186.60461962
 H      6   4   3     1.087778399978   108.88754274   134.51381037
 H      8   7   5     1.082403559221   119.58598320   357.71930619
 H      9   7   5     1.082503270261   119.65772549     2.50144264
 H      4   3   2     1.014501507215   157.44286211   267.05238280
 H      4   3   2     1.015544360008    66.18528037   192.55066146
 H     11   8   7     1.080317231389   120.27060949   179.84141942
 H     12   9   7     1.080309732903   120.32169917   180.20777897
 H      2   1   3     0.971783055004    94.80989107   276.59959256

---------------------------
INTERNAL COORDINATES (A.U.)
---------------------------
 Br     0   0   0     0.000000000000     0.00000000     0.00000000
 O      1   0   0    11.572751338380     0.00000000     0.00000000
 O      2   1   0     4.238434925453   119.49406989     0.00000000
 N      3   2   1     5.342310706936    86.45608080   105.45743646
 C      4   3   2     4.761600028408    71.91020896   290.40896769
 C      4   3   2     2.760070951025    58.52957030   325.50669297
 C      5   4   3     2.840379596050   145.99025192    63.02051081
 C      7   5   4     2.635193863536   120.94470811   259.41439244
 C      7   5   4     2.637265952359   120.55355328    76.88895169
 C      3   2   1     2.293314618710    30.15957153    87.08769771
 C      8   7   5     2.628013007885   121.24413123   177.57801712
 C      9   7   5     2.625190538084   121.21225727   182.41964277
 C     11   8   7     2.620204110712   118.83143552   359.90518485
 H      5   4   3     2.061580848754    89.90124980   294.59722826
 H      5   4   3     2.061166762266    87.53740444   186.60461962
 H      6   4   3     2.055603270353   108.88754274   134.51381037
 H      8   7   5     2.045446293309   119.58598320   357.71930619
 H      9   7   5     2.045634719868   119.65772549     2.50144264
 H      4   3   2     1.917130011086   157.44286211   267.05238280
 H      4   3   2     1.919100717263    66.18528037   192.55066146
 H     11   8   7     2.041503705082   120.27060949   179.84141942
 H     12   9   7     2.041489534997   120.32169917   180.20777897
 H      2   1   3     1.836403835543    94.80989107   276.59959256

---------------------
BASIS SET INFORMATION
---------------------
There are 5 groups of distinct atoms

 Group   1 Type Br  : 17s13p8d1f contracted to 6s5p4d1f pattern {842111/64111/5111/1}
 Group   2 Type O   : 11s6p2d1f contracted to 5s3p2d1f pattern {62111/411/11/1}
 Group   3 Type N   : 11s6p2d1f contracted to 5s3p2d1f pattern {62111/411/11/1}
 Group   4 Type C   : 11s6p2d1f contracted to 5s3p2d1f pattern {62111/411/11/1}
 Group   5 Type H   : 5s2p1d contracted to 3s2p1d pattern {311/11/1}

Atom   0Br   basis set group =>   1
Atom   1O    basis set group =>   2
Atom   2O    basis set group =>   2
Atom   3N    basis set group =>   3
Atom   4C    basis set group =>   4
Atom   5C    basis set group =>   4
Atom   6C    basis set group =>   4
Atom   7C    basis set group =>   4
Atom   8C    basis set group =>   4
Atom   9C    basis set group =>   4
Atom  10C    basis set group =>   4
Atom  11C    basis set group =>   4
Atom  12C    basis set group =>   4
Atom  13H    basis set group =>   5
Atom  14H    basis set group =>   5
Atom  15H    basis set group =>   5
Atom  16H    basis set group =>   5
Atom  17H    basis set group =>   5
Atom  18H    basis set group =>   5
Atom  19H    basis set group =>   5
Atom  20H    basis set group =>   5
Atom  21H    basis set group =>   5
Atom  22H    basis set group =>   5
---------------------------------
AUXILIARY/J BASIS SET INFORMATION
---------------------------------
There are 5 groups of distinct atoms

 Group   1 Type Br  : 19s5p5d3f1g contracted to 8s4p3d2f1g pattern {121111111/2111/311/21/1}
 Group   2 Type O   : 12s5p4d2f1g contracted to 6s4p3d1f1g pattern {711111/2111/211/2/1}
 Group   3 Type N   : 12s5p4d2f1g contracted to 6s4p3d1f1g pattern {711111/2111/211/2/1}
 Group   4 Type C   : 12s5p4d2f1g contracted to 6s4p3d1f1g pattern {711111/2111/211/2/1}
 Group   5 Type H   : 5s2p1d contracted to 3s1p1d pattern {311/2/1}

Atom   0Br   basis set group =>   1
Atom   1O    basis set group =>   2
Atom   2O    basis set group =>   2
Atom   3N    basis set group =>   3
Atom   4C    basis set group =>   4
Atom   5C    basis set group =>   4
Atom   6C    basis set group =>   4
Atom   7C    basis set group =>   4
Atom   8C    basis set group =>   4
Atom   9C    basis set group =>   4
Atom  10C    basis set group =>   4
Atom  11C    basis set group =>   4
Atom  12C    basis set group =>   4
Atom  13H    basis set group =>   5
Atom  14H    basis set group =>   5
Atom  15H    basis set group =>   5
Atom  16H    basis set group =>   5
Atom  17H    basis set group =>   5
Atom  18H    basis set group =>   5
Atom  19H    basis set group =>   5
Atom  20H    basis set group =>   5
Atom  21H    basis set group =>   5
Atom  22H    basis set group =>   5


           ************************************************************
           *        Program running with 2 parallel MPI-processes     *
           *              working on a common directory               *
           ************************************************************
------------------------------------------------------------------------------
                             ORCA STARTUP CALCULATIONS
                           -- RI-GTO INTEGRALS CHOSEN --
------------------------------------------------------------------------------
------------------------------------------------------------------------------
                   ___                                                        
                  /   \      - P O W E R E D   B Y -                         
                 /     \                                                     
                 |  |  |   _    _      __       _____    __    __             
                 |  |  |  | |  | |    /  \     |  _  \  |  |  /  |          
                  \  \/   | |  | |   /    \    | | | |  |  | /  /          
                 / \  \   | |__| |  /  /\  \   | |_| |  |  |/  /          
                |  |  |   |  __  | /  /__\  \  |    /   |      \           
                |  |  |   | |  | | |   __   |  |    \   |  |\   \          
                \     /   | |  | | |  |  |  |  | |\  \  |  | \   \       
                 \___/    |_|  |_| |__|  |__|  |_| \__\ |__|  \__/        
                                                                              
                      - O R C A' S   B I G   F R I E N D -                    
                                      &                                       
                       - I N T E G R A L  F E E D E R -                       
                                                                              
 v1 FN, 2020, v2 2021, v3 2022-2024                                           
------------------------------------------------------------------------------


----------------------
SHARK INTEGRAL PACKAGE
----------------------

Number of atoms                             ...     23
Number of basis functions                   ...    560
Number of shells                            ...    208
Maximum angular momentum                    ...      3
Integral batch strategy                     ... SHARK/LIBINT Hybrid
RI-J (if used) integral strategy            ... SPLIT-RIJ (Revised 2003 algorithm where possible)
Printlevel                                  ...      1
Contraction scheme used                     ... SEGMENTED contraction
Prescreening option                         ... SCHWARTZ
   Thresh                                   ... 2.500e-11
   Tcut                                     ... 2.500e-12
   Tpresel                                  ... 2.500e-12 
Coulomb Range Separation                    ... NOT USED
Exchange Range Separation                   ... NOT USED
Multipole approximations                    ... NOT USED
Finite Nucleus Model                        ... NOT USED
CABS basis                                  ... NOT available
Auxiliary Coulomb fitting basis             ... AVAILABLE
   # of basis functions in Aux-J            ...    756
   # of shells in Aux-J                     ...    248
   Maximum angular momentum in Aux-J        ...      4
Auxiliary J/K fitting basis                 ... NOT available
Auxiliary Correlation fitting basis         ... NOT available
Auxiliary 'external' fitting basis          ... NOT available

Checking pre-screening integrals            ... done (  0.0 sec) Dimension = 208
   => SHARK Basis and OBASIS are compatible. Storing Pre-screening
Shell pair information
Shell pair cut-off parameter TPreSel        ...   2.5e-12
Total number of shell pairs                 ...     21736
Shell pairs after pre-screening             ...     17441
Total number of primitive shell pairs       ...     64980
Primitive shell pairs kept                  ...     36476
          la=0 lb=0:   3648 shell pairs
          la=1 lb=0:   4828 shell pairs
          la=1 lb=1:   1634 shell pairs
          la=2 lb=0:   2797 shell pairs
          la=2 lb=1:   1884 shell pairs
          la=2 lb=2:    556 shell pairs
          la=3 lb=0:    978 shell pairs
          la=3 lb=1:    656 shell pairs
          la=3 lb=2:    384 shell pairs
          la=3 lb=3:     76 shell pairs

Checking whether 4 symmetric matrices of dimension 560 fit in memory
:Max Core in MB      =   3000.00
 MB in use           =     24.95
 MB left             =   2975.05
 MB needed           =      4.79
 Data fit in memory  = YES
Calculating RI/J V-Matrix + Cholesky decomp.... done (  0.0 sec)
Calculating Nuclear repulsion               ... done (  0.0 sec) ENN=   1032.525035510282 Eh

Diagonalization of the overlap matrix:
Smallest eigenvalue                        ... 7.291e-06
Time for diagonalization                   ...    0.052 sec
Threshold for overlap eigenvalues          ... 1.000e-07
Number of eigenvalues below threshold      ... 0
Time for construction of square roots      ...    0.018 sec
Total time needed                          ...    0.074 sec

-------------------
DFT GRID GENERATION
-------------------

General Integration Accuracy     IntAcc      ... 4.388
Radial Grid Type                 RadialGrid  ... OptM3 with GC (2021)
Angular Grid (max. ang.)         AngularGrid ... 4 (Lebedev-302)
Angular grid pruning method      GridPruning ... 4 (adaptive)
Weight generation scheme         WeightScheme... mBecke (2022)
Basis function cutoff            BFCut       ... 1.0000e-11
Integration weight cutoff        WCut        ... 1.0000e-14
Partially contracted basis set               ... off
Rotationally invariant grid construction     ... off
Angular grids for H and He will be reduced by one unit
Core-polarized basis detected: some atoms will have their core
                               angular grid increased.

Total number of grid points                  ...   115303
Total number of batches                      ...     1813
Average number of points per batch           ...       63
Average number of grid points per atom       ...     5013

--------------------
COSX GRID GENERATION
--------------------

GRIDX 1
-------
General Integration Accuracy     IntAcc      ... 3.816
Radial Grid Type                 RadialGrid  ... OptM3 with GC (2021)
Angular Grid (max. ang.)         AngularGrid ... 1 (Lebedev-50)
Angular grid pruning method      GridPruning ... 4 (adaptive)
Weight generation scheme         WeightScheme... mBecke (2022)
Basis function cutoff            BFCut       ... 1.0000e-11
Integration weight cutoff        WCut        ... 1.0000e-14
Partially contracted basis set               ... on
Rotationally invariant grid construction     ... off
Angular grids for H and He will be reduced by one unit
Core-polarized basis detected: some atoms will have their core
                               angular grid increased.

Total number of grid points                  ...    19332
Total number of batches                      ...      164
Average number of points per batch           ...      117
Average number of grid points per atom       ...      841
UseSFitting                                  ... on

GRIDX 2
-------
General Integration Accuracy     IntAcc      ... 4.020
Radial Grid Type                 RadialGrid  ... OptM3 with GC (2021)
Angular Grid (max. ang.)         AngularGrid ... 2 (Lebedev-110)
Angular grid pruning method      GridPruning ... 4 (adaptive)
Weight generation scheme         WeightScheme... mBecke (2022)
Basis function cutoff            BFCut       ... 1.0000e-11
Integration weight cutoff        WCut        ... 1.0000e-14
Partially contracted basis set               ... on
Rotationally invariant grid construction     ... off
Angular grids for H and He will be reduced by one unit
Core-polarized basis detected: some atoms will have their core
                               angular grid increased.

Total number of grid points                  ...    34893
Total number of batches                      ...      285
Average number of points per batch           ...      122
Average number of grid points per atom       ...     1517
UseSFitting                                  ... on

GRIDX 3
-------
General Integration Accuracy     IntAcc      ... 4.338
Radial Grid Type                 RadialGrid  ... OptM3 with GC (2021)
Angular Grid (max. ang.)         AngularGrid ... 3 (Lebedev-194)
Angular grid pruning method      GridPruning ... 4 (adaptive)
Weight generation scheme         WeightScheme... mBecke (2022)
Basis function cutoff            BFCut       ... 1.0000e-11
Integration weight cutoff        WCut        ... 1.0000e-14
Partially contracted basis set               ... on
Rotationally invariant grid construction     ... off
Angular grids for H and He will be reduced by one unit
Core-polarized basis detected: some atoms will have their core
                               angular grid increased.

Total number of grid points                  ...    69274
Total number of batches                      ...      551
Average number of points per batch           ...      125
Average number of grid points per atom       ...     3012
UseSFitting                                  ... on
Grids setup in   3.4 sec
Initializing property integral containers    ... done (  0.0 sec)

SHARK setup successfully completed in   4.0 seconds

Maximum memory used throughout the entire STARTUP-calculation: 72.8 MB


           ************************************************************
           *        Program running with 2 parallel MPI-processes     *
           *              working on a common directory               *
           ************************************************************
-------------------------------------------------------------------------------
                                 ORCA GUESS
                   Start orbitals & Density for SCF / CASSCF
-------------------------------------------------------------------------------

------------
SCF SETTINGS
------------
Hamiltonian:
 Density Functional     Method          .... DFT(GTOs)
 Exchange Functional    Exchange        .... B88
   X-Alpha parameter    XAlpha          ....  0.666667
   Becke's b parameter  XBeta           ....  0.004200
 Correlation Functional Correlation     .... LYP
 LDA part of GGA corr.  LDAOpt          .... VWN-5
 Gradients option       PostSCFGGA      .... off
 Hybrid DFT is turned on
   Fraction HF Exchange ScalHFX         ....  0.200000
   Scaling of DF-GGA-X  ScalDFX         ....  0.720000
   Scaling of DF-GGA-C  ScalDFC         ....  0.810000
   Scaling of DF-LDA-C  ScalLDAC        ....  1.000000
   Perturbative correction              ....  0.000000
   NL short-range parameter             ....  4.800000
 RI-approximation to the Coulomb term is turned on
   Number of AuxJ basis functions       .... 756
   RIJ-COSX (HFX calculated with COS-X)).... on


General Settings:
 Integral files         IntName         .... /kaggle/working/Phe-Br-2/Phe-Br_InterFrag
 Hartree-Fock type      HFTyp           .... RHF
 Total Charge           Charge          ....    0
 Multiplicity           Mult            ....    1
 Number of Electrons    NEL             ....  122
 Basis Dimension        Dim             ....  560
 Nuclear Repulsion      ENuc            ....   1032.5250355103 Eh

Convergence Acceleration:
 AO-DIIS                CNVDIIS         .... on
   Start iteration      DIISMaxIt       ....    12
   Startup error        DIISStart       ....  0.200000
   # of expansion vecs  DIISMaxEq       ....     5
   Bias factor          DIISBfac        ....   1.050
   Max. coefficient     DIISMaxC        ....  10.000
 MO-DIIS                CNVKDIIS        .... off
 Trust-Rad. Augm. Hess. CNVTRAH         .... auto
   Auto Start mean grad. ratio tolernc. ....  1.125000
   Auto Start start iteration           ....    50
   Auto Start num. interpolation iter.  ....    10
   Max. Number of Micro iterations      ....    24
   Max. Number of Macro iterations      .... Maxiter - #DIIS iter
   Number of Davidson start vectors     ....     2
   Converg. threshold    (grad. norm)   ....   1.000e-05
   Grad. Scal. Fac. for Micro threshold ....   0.100
   Minimum threshold for Micro iter.    ....   1.000e-02
   NR start threshold (gradient norm)   ....   1.000e-04
   Initial trust radius                 ....   0.400
   Minimum AH scaling param. (alpha)    ....   1.000
   Maximum AH scaling param. (alpha)    .... 1000.000
   Quad. conv. algorithm                .... NR
   White noise on init. David. guess    .... on
   Maximum white noise                  ....   0.010
   Pseudo random numbers                .... off
   Inactive MOs                         .... canonical
   Orbital update algorithm             .... Taylor
   Preconditioner                       .... Diag
   Full preconditioner red. dimension   ....   250
 SOSCF                 CNVSOSCF           .... on
   Start iteration     SOSCFMaxIt         ....   150
   Startup grad/error  SOSCFStart         ....  0.003300
   Hessian update      SOSCFHessUp        .... L-BFGS
   Autom. constraints  SOSCFAutoConstrain .... off
 Level Shifting         CNVShift        .... on
   Level shift para.    LevelShift      ....    0.2500
   Turn off err/grad.   ShiftErr        ....    0.0010
 Zerner damping         CNVZerner       .... off
 Static damping         CNVDamp         .... on
   Fraction old density DampFac         ....    0.7000
   Max. Damping (<1)    DampMax         ....    0.9800
   Min. Damping (>=0)   DampMin         ....    0.0000
   Turn off err/grad.   DampErr         ....    0.1000

SCF Procedure:
 Maximum # iterations   MaxIter         ....   125
 SCF integral mode      SCFMode         .... Direct
   Integral package                     .... SHARK and LIBINT hybrid scheme
 Reset frequency        DirectResetFreq ....    20
 Integral Threshold     Thresh          ....  2.500e-11 Eh
 Primitive CutOff       TCut            ....  2.500e-12 Eh

Convergence Tolerance:
 Convergence Check Mode ConvCheckMode   .... Total+1el-Energy
 Convergence forced     ConvForced      .... 0
 Energy Change          TolE            ....  1.000e-08 Eh
 1-El. energy change                    ....  1.000e-05 Eh
 Orbital Gradient       TolG            ....  1.000e-05
 Orbital Rotation angle TolX            ....  1.000e-05
 DIIS Error             TolErr          ....  5.000e-07

------------------------------
INITIAL GUESS: MODEL POTENTIAL
------------------------------
Loading Hartree-Fock densities                     ... done
Calculating cut-offs                               ... done
Initializing the effective Hamiltonian             ... done
Setting up the integral package (SHARK)            ... done
Starting the Coulomb interaction                   ... done (   0.8 sec)
Making the grid                                    ... done (   0.5 sec)
Mapping shells                                     ... done
Starting the XC term evaluation                    ... done (   0.7 sec)
  promolecular density results
     # of electrons  =    121.992439763
     EX              =   -161.953012056
     EC              =     -4.671514814
     EX+EC           =   -166.624526870
Transforming the Hamiltonian                       ... done (   0.0 sec)
Diagonalizing the Hamiltonian                      ... done (   0.1 sec)
Back transforming the eigenvectors                 ... done (   0.0 sec)
Now organizing SCF variables                       ... done
                      ------------------
                      INITIAL GUESS DONE (   2.1 sec)
                      ------------------
             **** ENERGY FILE WAS UPDATED (/kaggle/working/Phe-Br-2/Phe-Br_InterFrag.en.tmp) ****
Finished Guess after   2.5 sec
Maximum memory used throughout the entire GUESS-calculation: 48.7 MB


           ************************************************************
           *        Program running with 2 parallel MPI-processes     *
           *              working on a common directory               *
           ************************************************************

-------------------------------------------------------------------------------------------
                                      ORCA LEAN-SCF
                              memory conserving SCF solver
-------------------------------------------------------------------------------------------

----------------------------------------D-I-I-S--------------------------------------------
Iteration    Energy (Eh)           Delta-E    RMSDP     MaxDP     DIISErr   Damp  Time(sec)
-------------------------------------------------------------------------------------------
               ***  Starting incremental Fock matrix formation  ***
    1    -3127.7133665870933328     0.00e+00  1.91e-03  1.01e-01  2.87e-01  0.700  26.6
    2    -3127.9179442613458377    -2.05e-01  1.50e-03  9.28e-02  1.25e-01  0.700  14.4
                               ***Turning on AO-DIIS***
    3    -3127.9925007195415674    -7.46e-02  5.71e-04  3.11e-02  3.56e-02  0.700  13.8
    4    -3128.0380198075499720    -4.55e-02  9.28e-04  3.59e-02  1.62e-02  0.000  13.2
    5    -3128.1400854923349470    -1.02e-01  3.09e-04  2.22e-02  6.92e-03  0.000  13.9
                              *** Initializing SOSCF ***
---------------------------------------S-O-S-C-F--------------------------------------
Iteration    Energy (Eh)           Delta-E    RMSDP     MaxDP     MaxGrad    Time(sec)
--------------------------------------------------------------------------------------
    6    -3128.1406316791399149    -5.46e-04  1.12e-04  8.04e-03  2.08e-03    12.4
               *** Restarting incremental Fock matrix formation ***
    7    -3128.1406222145187712     9.46e-06  7.92e-05  4.71e-03  4.71e-04    26.2
    8    -3128.1406108300889173     1.14e-05  2.57e-05  1.16e-03  1.13e-03    18.9
    9    -3128.1406293848967834    -1.86e-05  1.07e-05  3.76e-04  8.79e-05    16.6
   10    -3128.1406289557262426     4.29e-07  4.91e-06  1.52e-04  7.50e-05    16.1
   11    -3128.1406297867142712    -8.31e-07  2.22e-06  1.23e-04  1.39e-05    14.8
   12    -3128.1406297566736612     3.00e-08  1.14e-06  3.89e-05  3.04e-05    12.6
   13    -3128.1406297739167712    -1.72e-08  1.55e-06  6.42e-05  6.42e-06    11.3
   14    -3128.1406297628373068     1.11e-08  9.71e-07  3.43e-05  7.48e-06    10.5
   15    -3128.1406297824123612    -1.96e-08  2.06e-06  8.83e-05  8.05e-07     9.3
                  *** Gradient check signals convergence ***

               *****************************************************
               *                     SUCCESS                       *
               *           SCF CONVERGED AFTER  15 CYCLES          *
               *****************************************************

Recomputing exchange energy using gridx3       ... done (   42.566 sec)
Old exchange energy                            :    -32.583230233 Eh
New exchange energy                            :    -32.583256064 Eh
Exchange energy change after final integration :     -0.000025831 Eh
Total energy after final integration           :  -3128.140655614 Eh
             **** ENERGY FILE WAS UPDATED (/kaggle/working/Phe-Br-2/Phe-Br_InterFrag.en.tmp) ****

----------------
TOTAL SCF ENERGY
----------------

Total Energy       :      -3128.14065561368352 Eh          -85121.03471 eV

Components:
Nuclear Repulsion  :       1032.52503551028167 Eh           28096.43461 eV
Electronic Energy  :      -4160.66566529289321 Eh         -113217.46862 eV
One Electron Energy:      -6387.83973220636017 Eh         -173821.95605 eV
Two Electron Energy:       2227.17406691346696 Eh           60604.48743 eV

Virial components:
Potential Energy   :      -6250.24350047381995 Eh         -170077.77223 eV
Kinetic Energy     :       3122.10284486013688 Eh           84956.73753 eV
Virial Ratio       :          2.00193389233269

DFT components:
N(Alpha)           :       60.999945803629 electrons
N(Beta)            :       60.999945803629 electrons
N(Total)           :      121.999891607259 electrons
E(X)               :     -129.630507649354 Eh       
E(C)               :       -5.485001861799 Eh       
E(XC)              :     -135.115509511154 Eh       

---------------
SCF CONVERGENCE
---------------

  Last Energy change         ...    1.9575e-08  Tolerance :   1.0000e-08
  Last MAX-Density change    ...    8.8290e-05  Tolerance :   1.0000e-07
  Last RMS-Density change    ...    2.0561e-06  Tolerance :   5.0000e-09
  Last DIIS Error            ...    2.0761e-03  Tolerance :   5.0000e-07
  Last Orbital Gradient      ...    8.0511e-07  Tolerance :   1.0000e-05
  Last Orbital Rotation      ...    1.2217e-06  Tolerance :   1.0000e-05


----------------
ORBITAL ENERGIES
----------------

  NO   OCC          E(Eh)            E(eV) 
   0   2.0000    -482.857288    -13139.2148 
   1   2.0000     -62.504657     -1700.8382 
   2   2.0000     -56.320112     -1532.5482 
   3   2.0000     -56.317689     -1532.4822 
   4   2.0000     -56.317648     -1532.4811 
   5   2.0000     -19.184148      -522.0272 
   6   2.0000     -19.122266      -520.3433 
   7   2.0000     -14.309771      -389.3887 
   8   2.0000     -10.310978      -280.5760 
   9   2.0000     -10.235501      -278.5222 
  10   2.0000     -10.226318      -278.2723 
  11   2.0000     -10.196382      -277.4577 
  12   2.0000     -10.192716      -277.3579 
  13   2.0000     -10.192325      -277.3473 
  14   2.0000     -10.192237      -277.3449 
  15   2.0000     -10.190018      -277.2845 
  16   2.0000     -10.188874      -277.2534 
  17   2.0000      -8.695548      -236.6179 
  18   2.0000      -6.524931      -177.5524 
  19   2.0000      -6.514163      -177.2594 
  20   2.0000      -6.513846      -177.2508 
  21   2.0000      -2.639555       -71.8259 
  22   2.0000      -2.636549       -71.7441 
  23   2.0000      -2.636344       -71.7386 
  24   2.0000      -2.627449       -71.4965 
  25   2.0000      -2.627440       -71.4963 
  26   2.0000      -1.119291       -30.4575 
  27   2.0000      -1.025976       -27.9182 
  28   2.0000      -0.909516       -24.7492 
  29   2.0000      -0.884719       -24.0744 
  30   2.0000      -0.821468       -22.3533 
  31   2.0000      -0.775045       -21.0900 
  32   2.0000      -0.766760       -20.8646 
  33   2.0000      -0.726543       -19.7702 
  34   2.0000      -0.680254       -18.5106 
  35   2.0000      -0.630804       -17.1650 
  36   2.0000      -0.608878       -16.5684 
  37   2.0000      -0.589812       -16.0496 
  38   2.0000      -0.542722       -14.7682 
  39   2.0000      -0.516730       -14.0609 
  40   2.0000      -0.494765       -13.4632 
  41   2.0000      -0.488288       -13.2870 
  42   2.0000      -0.483227       -13.1493 
  43   2.0000      -0.470148       -12.7934 
  44   2.0000      -0.451966       -12.2986 
  45   2.0000      -0.443599       -12.0709 
  46   2.0000      -0.437279       -11.8990 
  47   2.0000      -0.418993       -11.4014 
  48   2.0000      -0.415164       -11.2972 
  49   2.0000      -0.401508       -10.9256 
  50   2.0000      -0.386704       -10.5227 
  51   2.0000      -0.382327       -10.4037 
  52   2.0000      -0.362165        -9.8550 
  53   2.0000      -0.359518        -9.7830 
  54   2.0000      -0.334039        -9.0897 
  55   2.0000      -0.316122        -8.6021 
  56   2.0000      -0.292524        -7.9600 
  57   2.0000      -0.291367        -7.9285 
  58   2.0000      -0.274017        -7.4564 
  59   2.0000      -0.266354        -7.2479 
  60   2.0000      -0.243224        -6.6185 
  61   0.0000      -0.031766        -0.8644 
  62   0.0000      -0.028884        -0.7860 
  63   0.0000      -0.009050        -0.2463 
  64   0.0000      -0.007125        -0.1939 
  65   0.0000       0.023947         0.6516 
  66   0.0000       0.029405         0.8001 
  67   0.0000       0.054430         1.4811 
  68   0.0000       0.060041         1.6338 
  69   0.0000       0.077294         2.1033 
  70   0.0000       0.083426         2.2701 
  71   0.0000       0.089821         2.4442 
  72   0.0000       0.107635         2.9289 
  73   0.0000       0.115776         3.1504 
  74   0.0000       0.121319         3.3013 
  75   0.0000       0.129795         3.5319 
  76   0.0000       0.135623         3.6905 
  77   0.0000       0.142498         3.8776 
  78   0.0000       0.165949         4.5157 
  79   0.0000       0.176495         4.8027 
  80   0.0000       0.181663         4.9433 
  81   0.0000       0.188733         5.1357 
  82   0.0000       0.197019         5.3612 
  83   0.0000       0.200805         5.4642 
  84   0.0000       0.205502         5.5920 
  85   0.0000       0.209022         5.6878 
  86   0.0000       0.219075         5.9613 
  87   0.0000       0.225875         6.1464 
  88   0.0000       0.231776         6.3069 
  89   0.0000       0.237939         6.4746 
  90   0.0000       0.241305         6.5662 
  91   0.0000       0.256177         6.9709 
  92   0.0000       0.266590         7.2543 
  93   0.0000       0.269220         7.3259 
  94   0.0000       0.282476         7.6866 
  95   0.0000       0.286015         7.7829 
  96   0.0000       0.292914         7.9706 
  97   0.0000       0.293994         8.0000 
  98   0.0000       0.299669         8.1544 
  99   0.0000       0.302242         8.2244 
 100   0.0000       0.312500         8.5036 
 101   0.0000       0.322869         8.7857 
 102   0.0000       0.330863         9.0032 
 103   0.0000       0.333040         9.0625 
 104   0.0000       0.344454         9.3731 
 105   0.0000       0.347736         9.4624 
 106   0.0000       0.355042         9.6612 
 107   0.0000       0.363898         9.9022 
 108   0.0000       0.365553         9.9472 
 109   0.0000       0.380955        10.3663 
 110   0.0000       0.384154        10.4534 
 111   0.0000       0.394657        10.7392 
 112   0.0000       0.398746        10.8504 
 113   0.0000       0.402939        10.9645 
 114   0.0000       0.413987        11.2652 
 115   0.0000       0.419322        11.4103 
 116   0.0000       0.427981        11.6460 
 117   0.0000       0.429931        11.6990 
 118   0.0000       0.443562        12.0699 
 119   0.0000       0.445116        12.1122 
 120   0.0000       0.447645        12.1810 
 121   0.0000       0.453820        12.3491 
 122   0.0000       0.456060        12.4100 
 123   0.0000       0.480333        13.0705 
 124   0.0000       0.486178        13.2296 
 125   0.0000       0.490220        13.3396 
 126   0.0000       0.491908        13.3855 
 127   0.0000       0.504133        13.7182 
 128   0.0000       0.508550        13.8383 
 129   0.0000       0.513647        13.9771 
 130   0.0000       0.521237        14.1836 
 131   0.0000       0.531428        14.4609 
 132   0.0000       0.534414        14.5421 
 133   0.0000       0.538350        14.6492 
 134   0.0000       0.559449        15.2234 
 135   0.0000       0.562160        15.2972 
 136   0.0000       0.567918        15.4538 
 137   0.0000       0.586439        15.9578 
 138   0.0000       0.599513        16.3136 
 139   0.0000       0.613916        16.7055 
 140   0.0000       0.622190        16.9307 
 141   0.0000       0.638568        17.3763 
 142   0.0000       0.644659        17.5421 
 143   0.0000       0.653466        17.7817 
 144   0.0000       0.663746        18.0614 
 145   0.0000       0.667131        18.1535 
 146   0.0000       0.670918        18.2566 
 147   0.0000       0.688477        18.7344 
 148   0.0000       0.692437        18.8422 
 149   0.0000       0.698496        19.0070 
 150   0.0000       0.708565        19.2810 
 151   0.0000       0.733382        19.9563 
 152   0.0000       0.750006        20.4087 
 153   0.0000       0.755758        20.5652 
 154   0.0000       0.759573        20.6690 
 155   0.0000       0.787965        21.4416 
 156   0.0000       0.795326        21.6419 
 157   0.0000       0.800092        21.7716 
 158   0.0000       0.816304        22.2128 
 159   0.0000       0.820737        22.3334 
 160   0.0000       0.830203        22.5910 
 161   0.0000       0.846907        23.0455 
 162   0.0000       0.854732        23.2584 
 163   0.0000       0.865382        23.5483 
 164   0.0000       0.875148        23.8140 
 165   0.0000       0.890295        24.2262 
 166   0.0000       0.906295        24.6615 
 167   0.0000       0.912979        24.8434 
 168   0.0000       0.937982        25.5238 
 169   0.0000       0.945029        25.7156 
 170   0.0000       0.949291        25.8315 
 171   0.0000       0.959200        26.1012 
 172   0.0000       0.972188        26.4546 
 173   0.0000       0.981084        26.6967 
 174   0.0000       0.985832        26.8259 
 175   0.0000       0.994732        27.0680 
 176   0.0000       0.999668        27.2024 
 177   0.0000       1.006447        27.3868 
 178   0.0000       1.025719        27.9112 
 179   0.0000       1.033860        28.1328 
 180   0.0000       1.042171        28.3589 
 181   0.0000       1.046671        28.4814 
 182   0.0000       1.062964        28.9247 
 183   0.0000       1.071415        29.1547 
 184   0.0000       1.081176        29.4203 
 185   0.0000       1.098056        29.8796 
 186   0.0000       1.115688        30.3594 
 187   0.0000       1.126234        30.6464 
 188   0.0000       1.143641        31.1200 
 189   0.0000       1.151258        31.3273 
 190   0.0000       1.157766        31.5044 
 191   0.0000       1.167564        31.7710 
 192   0.0000       1.178864        32.0785 
 193   0.0000       1.185815        32.2677 
 194   0.0000       1.188527        32.3415 
 195   0.0000       1.194938        32.5159 
 196   0.0000       1.216338        33.0982 
 197   0.0000       1.217973        33.1427 
 198   0.0000       1.229323        33.4516 
 199   0.0000       1.237486        33.6737 
 200   0.0000       1.243373        33.8339 
 201   0.0000       1.249814        34.0092 
 202   0.0000       1.267930        34.5021 
 203   0.0000       1.283081        34.9144 
 204   0.0000       1.294379        35.2219 
 205   0.0000       1.299603        35.3640 
 206   0.0000       1.302971        35.4557 
 207   0.0000       1.316656        35.8280 
 208   0.0000       1.334471        36.3128 
 209   0.0000       1.339495        36.4495 
 210   0.0000       1.349348        36.7176 
 211   0.0000       1.350918        36.7604 
 212   0.0000       1.364744        37.1366 
 213   0.0000       1.370194        37.2849 
 214   0.0000       1.376218        37.4488 
 215   0.0000       1.389581        37.8124 
 216   0.0000       1.415670        38.5223 
 217   0.0000       1.420790        38.6617 
 218   0.0000       1.426912        38.8282 
 219   0.0000       1.433599        39.0102 
 220   0.0000       1.444335        39.3024 
 221   0.0000       1.455616        39.6093 
 222   0.0000       1.463228        39.8165 
 223   0.0000       1.480914        40.2977 
 224   0.0000       1.492377        40.6096 
 225   0.0000       1.498070        40.7646 
 226   0.0000       1.519233        41.3404 
 227   0.0000       1.524436        41.4820 
 228   0.0000       1.533492        41.7284 
 229   0.0000       1.540242        41.9121 
 230   0.0000       1.549339        42.1597 
 231   0.0000       1.556648        42.3585 
 232   0.0000       1.562377        42.5144 
 233   0.0000       1.568381        42.6778 
 234   0.0000       1.576456        42.8975 
 235   0.0000       1.586239        43.1638 
 236   0.0000       1.600524        43.5525 
 237   0.0000       1.606115        43.7046 
 238   0.0000       1.620780        44.1037 
 239   0.0000       1.625705        44.2377 
 240   0.0000       1.643254        44.7152 
 241   0.0000       1.652924        44.9783 
 242   0.0000       1.654582        45.0235 
 243   0.0000       1.658668        45.1347 
 244   0.0000       1.669796        45.4375 
 245   0.0000       1.677135        45.6372 
 246   0.0000       1.692347        46.0511 
 247   0.0000       1.705168        46.4000 
 248   0.0000       1.728813        47.0434 
 249   0.0000       1.733120        47.1606 
 250   0.0000       1.738028        47.2941 
 251   0.0000       1.746568        47.5265 
 252   0.0000       1.765481        48.0412 
 253   0.0000       1.786091        48.6020 
 254   0.0000       1.792932        48.7882 
 255   0.0000       1.808094        49.2007 
 256   0.0000       1.826505        49.7017 
 257   0.0000       1.839917        50.0667 
 258   0.0000       1.851154        50.3725 
 259   0.0000       1.854101        50.4527 
 260   0.0000       1.882686        51.2305 
 261   0.0000       1.895817        51.5878 
 262   0.0000       1.914608        52.0991 
 263   0.0000       1.930199        52.5234 
 264   0.0000       1.940918        52.8151 
 265   0.0000       1.968693        53.5709 
 266   0.0000       1.973997        53.7152 
 267   0.0000       1.997601        54.3575 
 268   0.0000       2.017956        54.9114 
 269   0.0000       2.029298        55.2200 
 270   0.0000       2.034485        55.3611 
 271   0.0000       2.053418        55.8763 
 272   0.0000       2.073146        56.4132 
 273   0.0000       2.089632        56.8618 
 274   0.0000       2.096323        57.0438 
 275   0.0000       2.124574        57.8126 
 276   0.0000       2.141894        58.2839 
 277   0.0000       2.156925        58.6929 
 278   0.0000       2.162546        58.8459 
 279   0.0000       2.190444        59.6050 
 280   0.0000       2.206700        60.0474 
 281   0.0000       2.223117        60.4941 
 282   0.0000       2.229439        60.6661 
 283   0.0000       2.282447        62.1085 
 284   0.0000       2.292159        62.3728 
 285   0.0000       2.308126        62.8073 
 286   0.0000       2.310471        62.8711 
 287   0.0000       2.350830        63.9693 
 288   0.0000       2.376548        64.6692 
 289   0.0000       2.385019        64.8997 
 290   0.0000       2.415863        65.7390 
 291   0.0000       2.460216        66.9459 
 292   0.0000       2.474313        67.3295 
 293   0.0000       2.498108        67.9770 
 294   0.0000       2.520058        68.5743 
 295   0.0000       2.540014        69.1173 
 296   0.0000       2.560885        69.6852 
 297   0.0000       2.566852        69.8476 
 298   0.0000       2.597116        70.6711 
 299   0.0000       2.616430        71.1967 
 300   0.0000       2.631772        71.6142 
 301   0.0000       2.641574        71.8809 
 302   0.0000       2.658365        72.3378 
 303   0.0000       2.677974        72.8714 
 304   0.0000       2.689075        73.1734 
 305   0.0000       2.704678        73.5980 
 306   0.0000       2.719974        74.0143 
 307   0.0000       2.734584        74.4118 
 308   0.0000       2.752000        74.8857 
 309   0.0000       2.757546        75.0367 
 310   0.0000       2.758990        75.0759 
 311   0.0000       2.764071        75.2142 
 312   0.0000       2.791954        75.9729 
 313   0.0000       2.801917        76.2440 
 314   0.0000       2.813856        76.5689 
 315   0.0000       2.814751        76.5933 
 316   0.0000       2.822382        76.8009 
 317   0.0000       2.835305        77.1526 
 318   0.0000       2.847044        77.4720 
 319   0.0000       2.881450        78.4082 
 320   0.0000       2.884626        78.4947 
 321   0.0000       2.904309        79.0303 
 322   0.0000       2.906335        79.0854 
 323   0.0000       2.922252        79.5185 
 324   0.0000       2.931127        79.7600 
 325   0.0000       2.940806        80.0234 
 326   0.0000       2.956111        80.4399 
 327   0.0000       2.979712        81.0821 
 328   0.0000       2.987474        81.2933 
 329   0.0000       2.999099        81.6096 
 330   0.0000       3.004458        81.7555 
 331   0.0000       3.009740        81.8992 
 332   0.0000       3.030119        82.4537 
 333   0.0000       3.039923        82.7205 
 334   0.0000       3.043390        82.8149 
 335   0.0000       3.047407        82.9242 
 336   0.0000       3.070040        83.5400 
 337   0.0000       3.076328        83.7111 
 338   0.0000       3.084836        83.9427 
 339   0.0000       3.091144        84.1143 
 340   0.0000       3.101939        84.4081 
 341   0.0000       3.112641        84.6993 
 342   0.0000       3.124481        85.0214 
 343   0.0000       3.138647        85.4069 
 344   0.0000       3.157261        85.9134 
 345   0.0000       3.167131        86.1820 
 346   0.0000       3.172894        86.3388 
 347   0.0000       3.188191        86.7551 
 348   0.0000       3.201516        87.1177 
 349   0.0000       3.202404        87.1418 
 350   0.0000       3.218606        87.5827 
 351   0.0000       3.225490        87.7700 
 352   0.0000       3.240612        88.1815 
 353   0.0000       3.249185        88.4148 
 354   0.0000       3.261423        88.7478 
 355   0.0000       3.265233        88.8515 
 356   0.0000       3.273182        89.0678 
 357   0.0000       3.285297        89.3975 
 358   0.0000       3.293390        89.6177 
 359   0.0000       3.300172        89.8022 
 360   0.0000       3.309766        90.0633 
 361   0.0000       3.317984        90.2869 
 362   0.0000       3.328634        90.5767 
 363   0.0000       3.330872        90.6376 
 364   0.0000       3.339580        90.8746 
 365   0.0000       3.361719        91.4770 
 366   0.0000       3.378078        91.9222 
 367   0.0000       3.386956        92.1638 
 368   0.0000       3.399827        92.5140 
 369   0.0000       3.402902        92.5977 
 370   0.0000       3.411918        92.8430 
 371   0.0000       3.424810        93.1938 
 372   0.0000       3.427057        93.2550 
 373   0.0000       3.444733        93.7360 
 374   0.0000       3.452229        93.9399 
 375   0.0000       3.470104        94.4263 
 376   0.0000       3.479609        94.6850 
 377   0.0000       3.494960        95.1027 
 378   0.0000       3.499029        95.2134 
 379   0.0000       3.510541        95.5267 
 380   0.0000       3.529111        96.0320 
 381   0.0000       3.531615        96.1001 
 382   0.0000       3.539978        96.3277 
 383   0.0000       3.544745        96.4574 
 384   0.0000       3.564851        97.0045 
 385   0.0000       3.565316        97.0172 
 386   0.0000       3.586752        97.6005 
 387   0.0000       3.600077        97.9631 
 388   0.0000       3.620063        98.5069 
 389   0.0000       3.629175        98.7549 
 390   0.0000       3.656129        99.4883 
 391   0.0000       3.669953        99.8645 
 392   0.0000       3.671500        99.9066 
 393   0.0000       3.696094       100.5758 
 394   0.0000       3.699475       100.6678 
 395   0.0000       3.704982       100.8177 
 396   0.0000       3.728919       101.4690 
 397   0.0000       3.733963       101.6063 
 398   0.0000       3.739084       101.7456 
 399   0.0000       3.754562       102.1668 
 400   0.0000       3.757291       102.2411 
 401   0.0000       3.772186       102.6464 
 402   0.0000       3.784513       102.9818 
 403   0.0000       3.816146       103.8426 
 404   0.0000       3.829784       104.2137 
 405   0.0000       3.836896       104.4072 
 406   0.0000       3.844726       104.6203 
 407   0.0000       3.859364       105.0186 
 408   0.0000       3.878482       105.5389 
 409   0.0000       3.885078       105.7183 
 410   0.0000       3.890737       105.8723 
 411   0.0000       3.900018       106.1249 
 412   0.0000       3.905367       106.2704 
 413   0.0000       3.910352       106.4061 
 414   0.0000       3.930604       106.9572 
 415   0.0000       3.937031       107.1321 
 416   0.0000       3.968536       107.9894 
 417   0.0000       3.985275       108.4448 
 418   0.0000       3.993343       108.6644 
 419   0.0000       3.997932       108.7893 
 420   0.0000       4.017125       109.3115 
 421   0.0000       4.026199       109.5585 
 422   0.0000       4.045127       110.0735 
 423   0.0000       4.052819       110.2828 
 424   0.0000       4.064539       110.6017 
 425   0.0000       4.081782       111.0709 
 426   0.0000       4.086137       111.1894 
 427   0.0000       4.094757       111.4240 
 428   0.0000       4.102297       111.6292 
 429   0.0000       4.113969       111.9468 
 430   0.0000       4.119104       112.0865 
 431   0.0000       4.124830       112.2423 
 432   0.0000       4.135981       112.5458 
 433   0.0000       4.154669       113.0543 
 434   0.0000       4.159860       113.1955 
 435   0.0000       4.189824       114.0109 
 436   0.0000       4.202140       114.3460 
 437   0.0000       4.204609       114.4132 
 438   0.0000       4.219480       114.8179 
 439   0.0000       4.232069       115.1605 
 440   0.0000       4.249818       115.6434 
 441   0.0000       4.255117       115.7876 
 442   0.0000       4.259958       115.9194 
 443   0.0000       4.274329       116.3104 
 444   0.0000       4.279158       116.4418 
 445   0.0000       4.297627       116.9444 
 446   0.0000       4.307399       117.2103 
 447   0.0000       4.315285       117.4249 
 448   0.0000       4.323270       117.6422 
 449   0.0000       4.335382       117.9717 
 450   0.0000       4.346876       118.2845 
 451   0.0000       4.383844       119.2905 
 452   0.0000       4.395104       119.5968 
 453   0.0000       4.413307       120.0922 
 454   0.0000       4.431736       120.5937 
 455   0.0000       4.449217       121.0694 
 456   0.0000       4.462846       121.4402 
 457   0.0000       4.492687       122.2522 
 458   0.0000       4.524034       123.1052 
 459   0.0000       4.539390       123.5231 
 460   0.0000       4.552449       123.8784 
 461   0.0000       4.560449       124.0961 
 462   0.0000       4.569448       124.3410 
 463   0.0000       4.593477       124.9949 
 464   0.0000       4.605026       125.3091 
 465   0.0000       4.629337       125.9707 
 466   0.0000       4.640986       126.2876 
 467   0.0000       4.653143       126.6185 
 468   0.0000       4.677514       127.2816 
 469   0.0000       4.714272       128.2819 
 470   0.0000       4.730744       128.7301 
 471   0.0000       4.733773       128.8125 
 472   0.0000       4.747639       129.1898 
 473   0.0000       4.776717       129.9811 
 474   0.0000       4.798514       130.5742 
 475   0.0000       4.807384       130.8156 
 476   0.0000       4.820852       131.1820 
 477   0.0000       4.854919       132.1090 
 478   0.0000       4.867368       132.4478 
 479   0.0000       4.900666       133.3539 
 480   0.0000       4.902943       133.4159 
 481   0.0000       4.905939       133.4974 
 482   0.0000       4.950273       134.7038 
 483   0.0000       4.967827       135.1814 
 484   0.0000       4.977602       135.4474 
 485   0.0000       4.985026       135.6495 
 486   0.0000       4.996444       135.9601 
 487   0.0000       5.018930       136.5720 
 488   0.0000       5.027056       136.7931 
 489   0.0000       5.037180       137.0686 
 490   0.0000       5.111711       139.0967 
 491   0.0000       5.120330       139.3313 
 492   0.0000       5.148863       140.1077 
 493   0.0000       5.168783       140.6497 
 494   0.0000       5.181155       140.9864 
 495   0.0000       5.205198       141.6406 
 496   0.0000       5.248374       142.8155 
 497   0.0000       5.258811       143.0995 
 498   0.0000       5.296492       144.1249 
 499   0.0000       5.324325       144.8823 
 500   0.0000       5.330983       145.0634 
 501   0.0000       5.333860       145.1417 
 502   0.0000       5.375475       146.2741 
 503   0.0000       5.390242       146.6759 
 504   0.0000       5.422212       147.5459 
 505   0.0000       5.450257       148.3090 
 506   0.0000       5.480115       149.1215 
 507   0.0000       5.509985       149.9343 
 508   0.0000       5.551968       151.0767 
 509   0.0000       5.566639       151.4760 
 510   0.0000       5.605009       152.5200 
 511   0.0000       5.628500       153.1593 
 512   0.0000       5.634555       153.3240 
 513   0.0000       5.646538       153.6501 
 514   0.0000       5.657886       153.9589 
 515   0.0000       5.663029       154.0988 
 516   0.0000       5.685887       154.7208 
 517   0.0000       5.710242       155.3836 
 518   0.0000       5.771319       157.0456 
 519   0.0000       5.816288       158.2692 
 520   0.0000       5.830338       158.6516 
 521   0.0000       5.861222       159.4919 
 522   0.0000       5.921034       161.1195 
 523   0.0000       5.938950       161.6070 
 524   0.0000       6.007879       163.4827 
 525   0.0000       6.045529       164.5072 
 526   0.0000       6.099436       165.9741 
 527   0.0000       6.169086       167.8694 
 528   0.0000       6.174255       168.0100 
 529   0.0000       6.324202       172.0903 
 530   0.0000       6.358241       173.0165 
 531   0.0000       6.429288       174.9498 
 532   0.0000       6.448032       175.4599 
 533   0.0000       6.462432       175.8517 
 534   0.0000       6.502778       176.9496 
 535   0.0000       6.538764       177.9288 
 536   0.0000       6.571994       178.8330 
 537   0.0000       6.593280       179.4123 
 538   0.0000       6.672340       181.5636 
 539   0.0000       6.737469       183.3359 
 540   0.0000       6.852304       186.4607 
 541   0.0000       6.876627       187.1225 
 542   0.0000       6.965851       189.5505 
 543   0.0000       7.094565       193.0529 
 544   0.0000       7.264127       197.6670 
 545   0.0000       7.424902       202.0419 
 546   0.0000       7.499312       204.0667 
 547   0.0000       7.743255       210.7047 
 548   0.0000      22.553031       613.6992 
 549   0.0000      22.948473       624.4597 
 550   0.0000      23.058942       627.4657 
 551   0.0000      23.159209       630.1941 
 552   0.0000      23.174937       630.6221 
 553   0.0000      23.263105       633.0213 
 554   0.0000      23.354134       635.4983 
 555   0.0000      23.466544       638.5571 
 556   0.0000      23.972941       652.3369 
 557   0.0000      32.667778       888.9354 
 558   0.0000      43.898643      1194.5428 
 559   0.0000      43.988017      1196.9748 

                    ********************************
                    * MULLIKEN POPULATION ANALYSIS *
                    ********************************

-----------------------
MULLIKEN ATOMIC CHARGES
-----------------------
   0 Br:   -0.085792
   1 O :   -0.262082
   2 O :   -0.328651
   3 N :   -0.325821
   4 C :   -0.161604
   5 C :    0.108818
   6 C :    0.044152
   7 C :   -0.163797
   8 C :   -0.166334
   9 C :    0.279158
  10 C :   -0.128365
  11 C :   -0.131873
  12 C :    0.017914
  13 H :    0.091305
  14 H :    0.083536
  15 H :    0.099311
  16 H :    0.142629
  17 H :    0.126378
  18 H :    0.123446
  19 H :    0.136179
  20 H :    0.144929
  21 H :    0.142463
  22 H :    0.214101
Sum of atomic charges:   -0.0000000

--------------------------------
MULLIKEN REDUCED ORBITAL CHARGES
--------------------------------
  0 Brs       :     7.909592  s :     7.909592
      pz      :     5.924342  p :    17.117390
      px      :     5.325671
      py      :     5.867376
      dz2     :     2.006618  d :    10.051765
      dxz     :     2.012271
      dyz     :     2.003635
      dx2y2   :     2.015882
      dxy     :     2.013359
      f0      :     0.000669  f :     0.007045
      f+1     :     0.001196
      f-1     :     0.000206
      f+2     :     0.000704
      f-2     :     0.000805
      f+3     :     0.001504
      f-3     :     0.001962

  1 O s       :     3.751624  s :     3.751624
      pz      :     1.569078  p :     4.483281
      px      :     1.638275
      py      :     1.275928
      dz2     :     0.007129  d :     0.025898
      dxz     :     0.006953
      dyz     :     0.003715
      dx2y2   :     0.005672
      dxy     :     0.002429
      f0      :     0.000155  f :     0.001279
      f+1     :     0.000292
      f-1     :     0.000164
      f+2     :     0.000209
      f-2     :     0.000267
      f+3     :     0.000060
      f-3     :     0.000132

  2 O s       :     3.805922  s :     3.805922
      pz      :     1.460309  p :     4.491269
      px      :     1.413929
      py      :     1.617031
      dz2     :     0.006983  d :     0.029680
      dxz     :     0.005382
      dyz     :     0.006171
      dx2y2   :     0.005629
      dxy     :     0.005514
      f0      :     0.000178  f :     0.001780
      f+1     :     0.000232
      f-1     :     0.000330
      f+2     :     0.000339
      f-2     :     0.000307
      f+3     :     0.000175
      f-3     :     0.000221

  3 N s       :     3.514623  s :     3.514623
      pz      :     1.400328  p :     3.774014
      px      :     1.290087
      py      :     1.083599
      dz2     :     0.007978  d :     0.035625
      dxz     :     0.007133
      dyz     :     0.002890
      dx2y2   :     0.011385
      dxy     :     0.006239
      f0      :     0.000099  f :     0.001560
      f+1     :     0.000347
      f-1     :     0.000125
      f+2     :     0.000224
      f-2     :     0.000126
      f+3     :     0.000278
      f-3     :     0.000359

  4 C s       :     3.231031  s :     3.231031
      pz      :     0.948370  p :     2.835358
      px      :     0.876996
      py      :     1.009992
      dz2     :     0.022380  d :     0.089592
      dxz     :     0.020684
      dyz     :     0.009361
      dx2y2   :     0.025172
      dxy     :     0.011996
      f0      :     0.000704  f :     0.005623
      f+1     :     0.001194
      f-1     :     0.000440
      f+2     :     0.000800
      f-2     :     0.000646
      f+3     :     0.000873
      f-3     :     0.000967

  5 C s       :     3.081404  s :     3.081404
      pz      :     0.964178  p :     2.641800
      px      :     0.808911
      py      :     0.868711
      dz2     :     0.030743  d :     0.157819
      dxz     :     0.041119
      dyz     :     0.018816
      dx2y2   :     0.041992
      dxy     :     0.025149
      f0      :     0.001221  f :     0.010159
      f+1     :     0.001689
      f-1     :     0.000881
      f+2     :     0.001378
      f-2     :     0.001193
      f+3     :     0.002040
      f-3     :     0.001758

  6 C s       :     3.278126  s :     3.278126
      pz      :     0.882556  p :     2.534223
      px      :     0.788947
      py      :     0.862721
      dz2     :     0.024509  d :     0.133816
      dxz     :     0.026280
      dyz     :     0.017576
      dx2y2   :     0.033398
      dxy     :     0.032054
      f0      :     0.000826  f :     0.009683
      f+1     :     0.001201
      f-1     :     0.001471
      f+2     :     0.001685
      f-2     :     0.001265
      f+3     :     0.001620
      f-3     :     0.001614

  7 C s       :     3.194934  s :     3.194934
      pz      :     0.985871  p :     2.865933
      px      :     0.949684
      py      :     0.930378
      dz2     :     0.009938  d :     0.095400
      dxz     :     0.024148
      dyz     :     0.013990
      dx2y2   :     0.020866
      dxy     :     0.026458
      f0      :     0.000595  f :     0.007531
      f+1     :     0.000716
      f-1     :     0.001201
      f+2     :     0.000976
      f-2     :     0.001292
      f+3     :     0.001448
      f-3     :     0.001303

  8 C s       :     3.182224  s :     3.182224
      pz      :     0.959395  p :     2.879576
      px      :     0.925183
      py      :     0.994999
      dz2     :     0.014989  d :     0.096961
      dxz     :     0.021074
      dyz     :     0.013389
      dx2y2   :     0.025018
      dxy     :     0.022492
      f0      :     0.000874  f :     0.007573
      f+1     :     0.001130
      f-1     :     0.000655
      f+2     :     0.001430
      f-2     :     0.001047
      f+3     :     0.001561
      f-3     :     0.000877

  9 C s       :     3.091149  s :     3.091149
      pz      :     0.710503  p :     2.347311
      px      :     0.729737
      py      :     0.907071
      dz2     :     0.074177  d :     0.257658
      dxz     :     0.039205
      dyz     :     0.045129
      dx2y2   :     0.059847
      dxy     :     0.039301
      f0      :     0.003264  f :     0.024723
      f+1     :     0.003198
      f-1     :     0.003585
      f+2     :     0.005511
      f-2     :     0.003301
      f+3     :     0.003319
      f-3     :     0.002545

 10 C s       :     3.160845  s :     3.160845
      pz      :     0.941057  p :     2.856831
      px      :     0.929096
      py      :     0.986679
      dz2     :     0.016298  d :     0.103043
      dxz     :     0.025150
      dyz     :     0.012561
      dx2y2   :     0.025171
      dxy     :     0.023863
      f0      :     0.000941  f :     0.007645
      f+1     :     0.001092
      f-1     :     0.000719
      f+2     :     0.001447
      f-2     :     0.001097
      f+3     :     0.001547
      f-3     :     0.000804

 11 C s       :     3.166113  s :     3.166113
      pz      :     0.964502  p :     2.855302
      px      :     0.967819
      py      :     0.922981
      dz2     :     0.011643  d :     0.102807
      dxz     :     0.025892
      dyz     :     0.013576
      dx2y2   :     0.021244
      dxy     :     0.030453
      f0      :     0.000594  f :     0.007650
      f+1     :     0.000747
      f-1     :     0.001298
      f+2     :     0.000951
      f-2     :     0.001329
      f+3     :     0.001423
      f-3     :     0.001308

 12 C s       :     3.281226  s :     3.281226
      pz      :     0.915165  p :     2.532261
      px      :     0.755648
      py      :     0.861447
      dz2     :     0.029006  d :     0.159235
      dxz     :     0.026146
      dyz     :     0.024066
      dx2y2   :     0.042009
      dxy     :     0.038008
      f0      :     0.000742  f :     0.009364
      f+1     :     0.001164
      f-1     :     0.001623
      f+2     :     0.001613
      f-2     :     0.001286
      f+3     :     0.001377
      f-3     :     0.001559

 13 H s       :     0.871920  s :     0.871920
      pz      :     0.012886  p :     0.034927
      px      :     0.011175
      py      :     0.010866
      dz2     :     0.000485  d :     0.001848
      dxz     :     0.000534
      dyz     :     0.000391
      dx2y2   :     0.000295
      dxy     :     0.000143

 14 H s       :     0.879559  s :     0.879559
      pz      :     0.010832  p :     0.035014
      px      :     0.010676
      py      :     0.013506
      dz2     :     0.000034  d :     0.001891
      dxz     :     0.000036
      dyz     :     0.000806
      dx2y2   :     0.000103
      dxy     :     0.000912

 15 H s       :     0.861504  s :     0.861504
      pz      :     0.016427  p :     0.037004
      px      :     0.010242
      py      :     0.010336
      dz2     :     0.000581  d :     0.002180
      dxz     :     0.000602
      dyz     :     0.000483
      dx2y2   :     0.000344
      dxy     :     0.000170

 16 H s       :     0.820446  s :     0.820446
      pz      :     0.012249  p :     0.035250
      px      :     0.011300
      py      :     0.011701
      dz2     :     0.000499  d :     0.001675
      dxz     :     0.000167
      dyz     :     0.000263
      dx2y2   :     0.000535
      dxy     :     0.000211

[...]
 10 C      6.1284     6.0000    -0.1284     3.9164     3.9164    -0.0000
 11 C      6.1319     6.0000    -0.1319     3.9394     3.9394    -0.0000
 12 C      5.9821     6.0000     0.0179     3.9406     3.9406    -0.0000
 13 H      0.9087     1.0000     0.0913     1.0252     1.0252    -0.0000
 14 H      0.9165     1.0000     0.0835     1.0088     1.0088    -0.0000
 15 H      0.9007     1.0000     0.0993     1.0234     1.0234    -0.0000
 16 H      0.8574     1.0000     0.1426     1.0053     1.0053    -0.0000
 17 H      0.8736     1.0000     0.1264     1.0033     1.0033    -0.0000
 18 H      0.8766     1.0000     0.1234     1.0317     1.0317     0.0000
 19 H      0.8638     1.0000     0.1362     1.0434     1.0434    -0.0000
 20 H      0.8551     1.0000     0.1449     0.9975     0.9975     0.0000
 21 H      0.8575     1.0000     0.1425     0.9988     0.9988    -0.0000
 22 H      0.7859     1.0000     0.2141     1.0419     1.0419     0.0000

  Mayer bond orders larger than 0.100000
B(  0-Br, 12-C ) :   1.0505 B(  1-O ,  9-C ) :   1.2245 B(  1-O , 22-H ) :   0.9597 
B(  2-O ,  9-C ) :   2.0589 B(  3-N ,  5-C ) :   0.9979 B(  3-N , 18-H ) :   0.9998 
B(  3-N , 19-H ) :   0.9910 B(  4-C ,  5-C ) :   0.9168 B(  4-C ,  6-C ) :   0.8653 
B(  4-C , 13-H ) :   0.9945 B(  4-C , 14-H ) :   0.9934 B(  5-C ,  9-C ) :   0.9142 
B(  5-C , 15-H ) :   0.9721 B(  6-C ,  7-C ) :   1.3450 B(  6-C ,  8-C ) :   1.3564 
B(  7-C , 10-C ) :   1.4383 B(  7-C , 16-H ) :   0.9563 B(  8-C , 11-C ) :   1.4619 
B(  8-C , 17-H ) :   0.9578 B( 10-C , 12-C ) :   1.3780 B( 10-C , 20-H ) :   0.9574 
B( 11-C , 12-C ) :   1.3722 B( 11-C , 21-H ) :   0.9554 

-------
TIMINGS
-------

Total SCF time: 0 days 0 hours 4 min 43 sec 

Total time                  ....     283.773 sec
Sum of individual times     ....     274.885 sec  ( 96.9%)

SCF preparation             ....       0.494 sec  (  0.2%)
Fock matrix formation       ....     270.883 sec  ( 95.5%)
  Startup                   ....       0.025 sec  (  0.0% of F)
  Split-RI-J                ....      21.070 sec  (  7.8% of F)
  Chain of spheres X        ....     228.396 sec  ( 84.3% of F)
  XC integration            ....      29.948 sec  ( 11.1% of F)
    XC Preparation          ....       0.000 sec  (  0.0% of XC)
    Basis function eval.    ....       7.506 sec  ( 25.1% of XC)
    Density eval.           ....       8.240 sec  ( 27.5% of XC)
    XC-Functional eval.     ....       0.600 sec  (  2.0% of XC)
    XC-Potential eval.      ....      12.638 sec  ( 42.2% of XC)
Diagonalization             ....       0.000 sec  (  0.0%)
Density matrix formation    ....       0.209 sec  (  0.1%)
Total Energy calculation    ....       0.090 sec  (  0.0%)
Population analysis         ....       1.082 sec  (  0.4%)
Orbital Transformation      ....       0.246 sec  (  0.1%)
Orbital Orthonormalization  ....       0.000 sec  (  0.0%)
DIIS solution               ....       1.003 sec  (  0.4%)
  MO trafo                  ....       0.000 sec  (  0.0 % of DIIS)
  Orb grad                  ....       0.000 sec  (  0.0 % of DIIS)
  Energy W gradient         ....       0.000 sec  (  0.0 % of DIIS)
  DIIS error                ....       0.208 sec  ( 20.7 % of DIIS)
  DIIS work                 ....       0.640 sec  ( 63.8 % of DIIS)
  Form Q                    ....       0.000 sec  (  0.0 % of DIIS)
  Form QpQm                 ....       0.000 sec  (  0.0 % of DIIS)
  Exp/Cayley                ....       0.000 sec  (  0.0 % of DIIS)
  Orb update                ....       0.000 sec  (  0.0 % of DIIS)
  Wake-sleep                ....       0.019 sec  (  1.9 % of DIIS)
SOSCF solution              ....       0.878 sec  (  0.3%)
  MO trafo                  ....       0.309 sec  ( 35.2 % of SOSCF)
  Orb grad                  ....       0.017 sec  (  2.0 % of SOSCF)
  Rot update                ....       0.048 sec  (  5.4 % of SOSCF)
  Step                      ....       0.488 sec  ( 55.6 % of SOSCF)
Finished LeanSCF after 283.8 sec

Maximum memory used throughout the entire LEANSCF-calculation: 75.9 MB


-------------------------------------------------------------------------------
                          DFT DISPERSION CORRECTION                            
                                                                               
                              DFTD3 V3.1  Rev 1                                
                          USING Becke-Johnson damping                          
-------------------------------------------------------------------------------
The B3LYP functional is recognized
Active option DFTDOPT                   ...         4   

molecular C6(AA) [au] = 7167.740317 


            DFT-D V3
 parameters
 s6 scaling factor         :     1.0000 
 a1 scaling factor         :     0.3981 
 s8 scaling factor         :     1.9889 
 a2 scaling factor         :     4.4211 
 ad hoc parameters k1-k3   :    16.0000     1.3333    -4.0000 

 Edisp/kcal,au: -30.075170753441  -0.047927830237 
 E6   /kcal   : -13.891983556 
 E8   /kcal   : -16.183187197 
 % E8         :  53.809128234 

-------------------------   ----------------
Dispersion correction           -0.047927830
-------------------------   ----------------


-------------------------   --------------------
FINAL SINGLE POINT ENERGY     -3128.188583443921
-------------------------   --------------------



           ************************************************************
           *        Program running with 2 parallel MPI-processes     *
           *              working on a common directory               *
           ************************************************************
------------------------------------------------------------------------------
                            ORCA SCF RESPONSE CALCULATION
------------------------------------------------------------------------------

GBWName                                 ... /kaggle/working/Phe-Br-2/Phe-Br_InterFrag.gbw
Number of atoms                         ...     23
Number of basis functions               ...    560
Max core memory                         ...   3000 MB

Electric field perturbation             ... YES
Quadrupolar field perturbation          ...  NO
Magnetic field perturbation (no GIAO)   ...  NO
Magnetic field perturbation (with GIAO) ...  NO
Linear momentum (velocity) perturbation ...  NO
Spin-orbit coupling perturbation        ...  NO
Choice of electric origin               ... Center of mass
Position of electric origin             ...     2.179295    -0.587984    -0.277732
Choice of magnetic origin               ... GIAO
Position of magnetic origin             ...     0.000000     0.000000     0.000000
Nuclear geometric perturbations         ...  NO (  69 perturbations)
Nucleus-orbit perturbations             ...  NO (   0 perturbations)
Spin-dipole/Fermi contact perturbations ...  NO (   0 perturbations)

Total number of real perturbations      ...      3
Total number of imaginary perturbations ...      0
Total number of triplet perturbations   ...      0
Total number of SOC perturbations       ...      0

Using XC Grid                  ... (/kaggle/working/Phe-Br-2/Phe-Br_InterFrag.grid_cpscf.tmp) 
Recalculating density on grid  ... (/kaggle/working/Phe-Br-2/Phe-Br_InterFrag.grho_cpscf0.tmp) done
Calculating the xc-kernel      ... (/kaggle/working/Phe-Br-2/Phe-Br_InterFrag.fxc_cpscf0.tmp) done

                                **********************
                                * REAL PERTURBATIONS *
                                **********************



-------------------
SHARK CP-SCF DRIVER
-------------------

Dimension of the orbital basis          ...    560
Dimension of the CPSCF-problem          ...  30439
Number of operators                     ...      1
Max. number of iterations               ...    128
Convergence Tolerance                   ... 1.0e-04
Number of perturbations                 ...      3
Perturbation type                       ... REAL

----------------------------
POPLE LINEAR EQUATION SOLVER
----------------------------

  ITERATION   0:   ||err||_max =   1.8923e+01 (  13.8 sec   0/  3 done)
  ITERATION   1:   ||err||_max =   1.8550e+00 (  12.9 sec   0/  3 done)
  ITERATION   2:   ||err||_max =   5.3260e-01 (  12.6 sec   0/  3 done)
  ITERATION   3:   ||err||_max =   1.5770e-01 (  12.5 sec   0/  3 done)
  ITERATION   4:   ||err||_max =   5.9944e-02 (  12.6 sec   0/  3 done)
  ITERATION   5:   ||err||_max =   2.1810e-02 (  12.4 sec   0/  3 done)
  ITERATION   6:   ||err||_max =   8.1212e-03 (  12.5 sec   0/  3 done)
  ITERATION   7:   ||err||_max =   2.5729e-03 (  12.7 sec   0/  3 done)
  ITERATION   8:   ||err||_max =   9.6950e-04 (  12.5 sec   0/  3 done)
  ITERATION   9:   ||err||_max =   3.1856e-04 (  12.9 sec   0/  3 done)
  ITERATION  10:   ||err||_max =   1.0081e-04 (  13.0 sec   2/  3 done)
  ITERATION  11:   ||err||_max =   2.7491e-05 (   9.2 sec   3/  3 done)

CP-SCF equations solved in 149.6 sec
Response densities calculated in   0.0 sec

Maximum memory used throughout the entire SCFRESP-calculation: 99.2 MB


           ************************************************************
           *        Program running with 2 parallel MPI-processes     *
           *              working on a common directory               *
           ************************************************************

------------------------------------------------------------------------------
                              ORCA PROPERTY CALCULATIONS
------------------------------------------------------------------------------

GBWName                                 ... /kaggle/working/Phe-Br-2/Phe-Br_InterFrag.gbw
Number of atoms                         ...     23
Number of basis functions               ...    560
Max core memory                         ...   3000 MB

Electric properties:
Dipole moment                           ... YES
Quadrupole moment                       ...  NO
Static polarizability (Dipole/Dipole)   ... YES
Static polarizability (Dipole/Quad.)    ...  NO
Static polarizability (Quad./Quad.)     ...  NO
Static polarizability (Velocity)        ...  NO
Static hyperpolarizability              ...  NO

Atomic electric properties:
Dipole moment                           ...  NO
Quadrupole moment                       ...  NO
Static polarizability                   ...  NO

Choice of electric origin               ... Center of mass
Position of electric origin             ...     2.179295    -0.587984    -0.277732

General magnetic properties:
Magnetizability                         ...  NO

EPR properties:
g-Tensor (aka g-matrix)                 ...  NO
Zero-Field splitting spin-orbit         ...  NO
Zero-field splitting spin-spin          ...  NO
Hyperfine couplings                     ...  NO (   0 nuclei)
Quadrupole couplings                    ...  NO (   0 nuclei)
Contact density                         ...  NO (   0 nuclei)

NMR properties:
Chemical shifts                         ...  NO (   0 nuclei)
Spin-rotation constants                 ...  NO (   0 nuclei)
Spin-spin couplings                     ...  NO (   0 nuclei,    0 pairs)

Choice of magnetic origin               ... GIAO
Position of magnetic origin             ...     0.000000     0.000000     0.000000

Properties with geometric perturbations:
SCF Hessian                             ...  NO
IR spectrum                             ...  NO
VCD spectrum                            ...  NO
X-ray spectroscopy properties:
SCF XES/XAS/RIXS spectra                ...  NO

SCF SOC stabilization energy            ...  NO
Diagonal Born-Oppenheimer correction    ...  NO

-------------
DIPOLE MOMENT
-------------

Method             : SCF
Type of density    : Electron Density
Multiplicity       :   1
Irrep              :   0
Energy             : -3128.1406556136835206 Eh
Basis              : AO
                                X                 Y                 Z
Electronic contribution:     49.011845652     -14.491859734      -5.485617328
Nuclear contribution   :    -48.999226774      15.189533164       5.603930218
                        -----------------------------------------
Total Dipole Moment    :      0.012618878       0.697673430       0.118312890
                        -----------------------------------------
Magnitude (a.u.)       :      0.707746700
Magnitude (Debye)      :      1.798949146



--------------------
Rotational spectrum 
--------------------
 
Rotational constants in cm-1:             0.054306             0.007572             0.007213 
Rotational constants in MHz :          1628.044142           227.010611           216.236639 

Dipole components along the rotational axes: 
x,y,z [a.u.] :     0.099894     0.700278     0.023166 
x,y,z [Debye]:     0.253910     1.779966     0.058884 

 

Dipole moment calculation done in   0.0 sec 


---------------------------------------------------
STATIC POLARIZABILITY TENSOR (Dipole/Dipole)
---------------------------------------------------

Method             : SCF
Type of density    : Electron Density
Type of derivative : Electric Field (Direction=X)
Multiplicity       :   1
Irrep              :   0
Basis              : AO

The raw cartesian tensor (atomic units):
     185.501130469       -23.590634017       -18.893967252  
     -23.590634017       127.319807973        -8.274737886  
     -18.893967252        -8.274737886       106.317169704  
diagonalized tensor: 
      95.518900796       127.170536229       196.448671121  

Orientation: 
       0.293358165         0.180680852        -0.938773357  
       0.438645219         0.847070262         0.300103887  
       0.849430020        -0.499826370         0.169240186  

Isotropic polarizability : 139.71270


Polarizability tensor calculation done in   0.0 sec 

Maximum memory used throughout the entire PROP-calculation: 52.4 MB

--------------------------------
SUGGESTED CITATIONS FOR THIS RUN
--------------------------------

Below you find a list of papers that are relevant to this ORCA run
We neither can nor want to force you to cite these papers, but we appreciate if you do
You receive ORCA, which is the product of decades of hard work by many enthusiastic individuals, for free
The only thing we kindly ask in return is that you cite our papers,
We deeply appreciate it, if you show your appreciation for ORCA by not just citing the generic ORCA reference.

Please note that relegating all ORCA citations to the supporting information does *not* help us.
SI sections are not indexed - citations you put there will not count into any citation statistics
But we need these citations in order to attract the funding resources that allow us to do what we are doing

Therefore, if you are a happy ORCA user, please consider citing a few of the papers listed below in the main body of your paper

In addition to the list printed below, the program has created the file /kaggle/working/Phe-Br-2/Phe-Br_InterFrag.bibtex that contains the list in bibtex format
You can import this file easily into all common literature databanks and citation aid programs

It goes without saying that in many instances, there are alternative algorithms to achieve similar
results as the ones you have gotten from ORCA. It is, of course, also the case that in some instances
ORCA just re-implements algorithms worked out by others. We are fully aware of that and we are also
fully appreciative of our colleagues work. Hence this citation list should not be read as indicating
that the listed papers, which are focused on our own work, are the only ones worth citing. It simply
meant to make it easier for users to cite ORCA specific papers. It is not a substitute for doing your
own literature research and citing the relevant literature in a scientifically appropriate manner.

List of essential papers. We consider these as the minimum necessary citations

  1. Neese, F.
     Software update: the ORCA program system, version 6.0
     WIRES Comput. Molec. Sci. 2025 15(1), e70019
     doi.org/10.1002/wcms.70019

List of papers to cite with high priority. The work reported in these papers was absolutely
necessary for this run to complete.
Our perspective: the developers of density functionals and basis sets usually get cited in chemistry papers
Good! But without the algorithms to do something with them, the functionals or basis sets would not do anything.
Hence, in our opinion, the algorithm design and method developments papers are equally worthy of getting cited

  1. Neese, F.
     An improvement of the resolution of the identity approximation for the formation of the Coulomb matrix
     J. Comp. Chem. 2003 24(14), 1740-1747
     doi.org/10.1002/jcc.10318
  2. Neese, F.; Wennmohs, F.; Hansen, A.; Becker, U.
     Efficient, approximate and parallel Hartree-Fock and hybrid DFT calculations. A 'chain-of-spheres' algorithm for the Hartree-Fock exchange
     Chem. Phys. 2009 356(1-3), 98-109
     doi.org/10.1016/j.chemphys.2008.10.036
  3. Grimme, S.; Antony, J.; Ehrlich, S.; Krieg, H.
     A consistent and accurate ab initio parametrization of density functional dispersion correction (DFT-D) for the 94 elements H-Pu
     J. Chem. Phys. 2010 132 , 154104
     doi.org/10.1063/1.3382344
  4. Grimme, S.; Ehrlich, S.; Goerigk, L.
     Effect of the damping function in dispersion corrected density functional theory
     J. Comput. Chem. 2011 32(7), 1456-1465
     doi.org/10.1002/jcc.21759
  5. Helmich-Paris, B.; de Souza, B.; Neese, F.; Izsák, R.
     An improved chain of spheres for exchange algorithm
     J. Chem. Phys. 2021 155(10), 104109
     doi.org/10.1063/5.0058766
  6. Neese, F.
     The SHARK Integral Generation and Digestion System
     J. Comp. Chem. 2022 44(3), 381
     doi.org/10.1002/jcc.26942

List of suggested additional citations. These are papers that are important in the 'surrounding' of 
of this run, or papers that preceded the highly important papers. If you like your results we are grateful for a citation.

  1. Izsak, R.; Neese, F.
     An overlap fitted chain of spheres exchange method
     J. Chem. Phys. 2011 135 , 144105
     doi.org/10.1063/1.3646921
  2. Izsak, R.; Hansen, A.; Neese, F.
     The resolution of identity and chain of spheres approximations for the LPNO-CCSD singles Fock term
     Molec. Phys. 2012 110 , 2413-2417
     doi.org/10.1080/00268976.2012.687466
  3. Neese, F.
     The ORCA program system
     WIRES Comput. Molec. Sci. 2012 2(1), 73-78
     doi.org/10.1002/wcms.81
  4. Izsak, R.; Neese, F.; Klopper, W.
     Robust fitting techniques in the chain of spheres approximation to the Fock exchange: The role of the complementary space
     J. Chem. Phys. 2013 139 , 
     doi.org/10.1063/1.4819264
  5. Neese, F.
     Software update: the ORCA program system, version 4.0
     WIRES Comput. Molec. Sci. 2018 8(1), 1-6
     doi.org/10.1002/wcms.1327
  6. Neese, F.; Wennmohs, F.; Becker, U.; Riplinger, C.
     The ORCA quantum chemistry program package
     J. Chem. Phys. 2020 152(22), 224108
     doi.org/10.1063/5.0004608
  7. Neese, F.
     Software update: The ORCA program system—Version 5.0
     WIRES Comput. Molec. Sci. 2022 12(1), e1606
     doi.org/10.1002/wcms.1606

List of optional additional citations

  1. Neese, F.
     Approximate second-order SCF convergence for spin unrestricted wavefunctions
     Chem. Phys. Lett. 2000 325(1-3), 93-98
     doi.org/10.1016/s0009-2614(00)00662-x

Timings for individual modules:

Sum of individual times          ...      442.272 sec (=   7.371 min)
Startup calculation              ...        4.414 sec (=   0.074 min)   1.0 %
SCF iterations                   ...      286.568 sec (=   4.776 min)  64.8 %
SCF Response                     ...      150.755 sec (=   2.513 min)  34.1 %
Property calculations            ...        0.535 sec (=   0.009 min)   0.1 %
                             ****ORCA TERMINATED NORMALLY****
TOTAL RUN TIME: 0 days 0 hours 7 minutes 22 seconds 778 msec
