
                                 *****************
                                 * O   R   C   A *
                                 *****************

                                            #,                                       
                                            ###                                      
                                            ####                                     
                                            #####                                    
                                            ######                                   
                                           ########,                                 
                                     ,,################,,,,,                         
                               ,,#################################,,                 
                          ,,##########################################,,             
                       ,#########################################, ''#####,          
                    ,#############################################,,   '####,        
                  ,##################################################,,,,####,       
                ,###########''''           ''''###############################       
              ,#####''   ,,,,##########,,,,          '''####'''          '####       
            ,##' ,,,,###########################,,,                        '##       
           ' ,,###''''                  '''############,,,                           
         ,,##''                                '''############,,,,        ,,,,,,###''
      ,#''                                            '''#######################'''  
     '                                                          ''''####''''         
             ,#######,   #######,   ,#######,      ##                                
            ,#'     '#,  ##    ##  ,#'     '#,    #''#        ,####,    ,#,          
            ##       ##  ##   ,#'  ##            #'  '#       #'       ,# #          
            ##       ##  #######   ##           ,######,      #####,      #          
            '#,     ,#'  ##    ##  '#,     ,#' ,#      #,     #,   #      #          
             '#######'   ##     ##  '#######'  #'      '#     '####' #    #          



                #########################################################
                #                        -***-                          #
                #          Department of theory and spectroscopy        #
                #                                                       #
                #                      Frank Neese                      #
                #                                                       #
                #     Directorship, Architecture, Infrastructure        #
                #                    SHARK, DRIVERS                     #
                #        Core code/Algorithms in most modules           #
                #                                                       #
                #        Max Planck Institute fuer Kohlenforschung      #
                #                Kaiser Wilhelm Platz 1                 #
                #                 D-45470 Muelheim/Ruhr                 #
                #                      Germany                          #
                #                                                       #
                #                  All rights reserved                  #
                #                        -***-                          #
                #########################################################


                         Program Version 6.1.1  -  RELEASE   -
                                (GIT: $487d211c$)
                          ($2025-11-21 10:33:24 +0100$)
                                                                         
                                  - NO-DMRG VERSION -                    
                                                                         


 With contributions from (in alphabetic order):
[Max-Planck-Institut fuer Kohlenforschung]                               
  Daniel Aravena         : Magnetic Suceptibility                        
  Michael Atanasov       : Ab Initio Ligand Field Theory (pilot matlab implementation)
  Alexander A. Auer      : GIAO ZORA, VPT2 properties, NMR spectrum      
  Ute Becker             : All parallelization in ORCA, NUMFREQ, NUMCALC 
  Giovanni Bistoni       : ED, misc. LED, open-shell LED, HFLD           
  Dmytro Bykov           : pre 5.0 version of the SCF Hessian            
  Marcos Casanova-Páez   : Triplet and SCS-CIS(D). UHF-(DLPNO)-IP/EA/STEOM-CCSD. UHF-CVS-IP/STEOM-CCSD   
  Vijay G. Chilkuri      : MRCI spin determinant printing, contributions to CSF-ICE 
  Pauline Colinet        : FMM embedding                                 
  Dipayan Datta          : RHF DLPNO-CCSD density                        
  Achintya Kumar Dutta   : EOM-CC, STEOM-CC                              
  Nicolas Foglia         : Exact transition moments, OPA infrastructure, MCD improvements    
  Dmitry Ganyushin       : Spin-Orbit,Spin-Spin,Magnetic field MRCI      
  Miquel Garcia-Rates    : C-PCM and meta-GGA Hessian, CCSD/C-PCM, Gaussian charge scheme 
  Tiago L. C. Gouveia    : GS-ROHF, GS-ROCIS                             
  Yang Guo               : DLPNO-NEVPT2, F12-NEVPT2, CIM, IAO-localization        
  Andreas Hansen         : Spin unrestricted coupled pair/coupled cluster methods 
  Ingolf Harden          : AUTO-CI MPn and infrastructure                
  Benjamin Helmich-Paris : MC-RPA, TRAH-(SCF,CASSCF), AVAS, COSX integrals, SCF dyn. polar., MC-PDFT, srDFT 
  Lee Huntington         : MR-EOM, pCC                                   
  Robert Izsak           : Overlap fitted RIJCOSX, COSX-SCS-MP3, EOM     
  Riya Kayal             : Wick's Theorem for AUTO-CI, AUTO-CI UHF-CCSDT 
  Emily Kempfer          : AUTO-CI RHF CISDT and CCSDT, approximate NEVPT4
  Christian Kollmar      : KDIIS, OOCD, Brueckner-CCSD(T), CCSD density, CASPT2, CASPT2-K, improved NEVPT2 
  Axel Koslowski         : Symmetry handling                             
  Simone Kossmann        : meta-GGA functionals, TD-DFT gradient, OOMP2, (MP2 Hessian; deprecated post 5.0) 
  Lucas Lang             : DCDCAS, Hyperfine gauge corrections, ICE-SOC+SSC
  Marvin Lechner         : AUTO-CI (C++ implementation), FIC-MRCC        
  Spencer Leger          : CASSCF response                               
  Dagmar Lenk            : GEPOL surface, SMD, ORCA-2-JSON               
  Dimitrios Liakos       : Extrapolation schemes; Compound Job, Property file
  Dimitrios Manganas     : Further ROCIS development; embedding schemes. LFT, Crystal Embedding 
  Dimitrios Pantazis     : SARC Basis sets                               
  Anastasios Papadopoulos: AUTO-CI, single reference methods and gradients 
  Taras Petrenko         : pre 6.0 DFT Hessian and TD-DFT gradient,  ECA, NRVS 
  Petra Pikulova         : Analytic Raman intensities                    
  Peter Pinski           : DLPNO-MP2, DLPNO-MP2 Gradient                 
  Shashank Vittal Rao    : ES-AILFT, MagRelax                            
  Christoph Reimann      : Effective Core Potentials                     
  Marius Retegan         : Local ZFS, SOC                                
  Christoph Riplinger    : Optimizer, TS searches, QM/MM, DLPNO-CCSD(T), (RO)-DLPNO pert. Triples 
  Michael Roemelt        : Original ROCIS implementation, recursive CI coupling coefficients
  Masaaki Saitow         : Open-shell DLPNO-CCSD energy and density      
  Barbara Sandhoefer     : DKH picture change effects                    
  Yorick L. A. Schmerwitz: GMF and freeze-and-release deltaSCF, NEB S-IDPP initial path                    
  Kantharuban Sivalingam : CASSCF convergence/infrastructure, NEVPT2, NEVPT3, NEVPT4(SD), FIC-MRCI and CEPA variants
  Bernardo de Souza      : ESD, SOC TD-DFT                               
  Georgi L. Stoychev     : AutoAux, RI-MP2 NMR, DLPNO-MP2 response, X2C  
  Van Anh Tran           : RI-MP2 g-tensors                              
  Willem Van den Heuvel  : Paramagnetic NMR                              
  Zikuan Wang            : NOTCH, Electric field optimization            
  Frank Wennmohs         : Technical directorship and infrastructure     
  Hang Xu                : AUTO-CI-Response properties                   
                                                                         
[FACCTs GmbH]                                                            
  Markus Bursch, Nicolas Foglia, Miquel Garcia-Rates, Ingolf Harden, Hagen Neugebauer, Anastasios Papadopoulos, 
  Christoph Riplinger, Bernardo de Souza, Georgi L. Stoychev                                                    
                                                                 
  APM, various basis sets, CI-OPT, improved COSX, DLPNO-Multilevel,           
  DOCKER, DRACO, updates on ESD, Fragmentator, GOAT, IRC, LR-CPCM, L-BFGS, MBIS, meta-GGA TD-DFT gradient, ML-optimized integration grids, 
  MM, NACMEs, nearIR, NEB, NEB-TS, NL-DFT gradient (VV10), 2- and 3-layer-ONIOM, interface openCOSMO-RS, QMMM,   
  Crystal-QMMM, RESP, rigid body optimization, SF, symmetry and pop. for TD-DFT, various functionals, SOLVATOR                                   
                                                                         
[Other institutions]                                                     
  V. Asgeirsson          : NEB                                           
  Christoph Bannwarth    : sTDA-DFT, sTD-DFT, PBEh-3c, B97-3c, D3        
  Giovanni Bistoni       : ETS/NOCV, ADLD/ADEX, COVALED                  
  Martin Brehm           : Molecular dynamics                            
  Ronald Cardenas        : ETS/NOCV                                      
  Martina Colucci        : COVALED                                       
  Sebastian Ehlert       : rSCAN, r2SCAN, r2SCAN-3c, D4, dhf basis sets  
  Marvin Friede          : D4 for Fr, Ra, Ac-Lr                          
  Lars Goerigk           : TD-DFT with DH, B97 family of functionals     
  Stefan Grimme          : VdW corrections, initial TS optimization, DFT functionals, gCP, sTDA/sTD-DF 
  Waldemar Hujo          : DFT-NL                                        
  H. Jonsson             : NEB                                           
  Holger Kruse           : gCP                                           
  Marcel Mueller         : wB97X-3c, vDZP basis set                      
  Hagen Neugebauer       : wr2SCAN, Native XTB                           
  Gianluca Regni         : ADLD/ADEX                                     
  Tobias Risthaus        : pre 6.0 range-separated hybrid DFT and stability analysis
  Lukas Wittmann         : regularized MP2, r2SCAN double-hybrids, wr2SCAN        
                                                                         
We gratefully acknowledge several colleagues who have allowed us to      
interface, adapt or use parts of their codes:                            
  Ed Valeev, F. Pavosevic, A. Kumar             : LibInt (2-el integral package), F12 methods 
  Garnet Chan, S. Sharma, J. Yang, R. Olivares  : DMRG                   
  Ulf Ekstrom                                   : XCFun DFT Library      
  Mihaly Kallay                                 : mrcc  (arbitrary order and MRCC methods)
  Frank Weinhold                                : gennbo (NPA and NBO analysis)           
  Simon Mueller                                 : openCOSMO-RS                            
  Christopher J. Cramer and Donald G. Truhlar   : smd solvation model                     
  S Lehtola, MJT Oliveira, MAL Marques          : LibXC Library                           
  Liviu Ungur et al                             : ANISO software                          


 Your calculation uses the libint2 library for the computation of 2-el integrals
 For citations please refer to: http://libint.valeyev.net

 Your ORCA version has been built with support for libXC version: 7.0.0
 For citations please refer to: https://libxc.gitlab.io

 This ORCA versions uses:
   CBLAS   interface :  Fast vector & matrix operations
   LAPACKE interface :  Fast linear algebra routines
   SCALAPACK package :  Parallel linear algebra routines
   Shared memory     :  Shared parallel matrices
   BLAS/LAPACK       :  OpenBLAS 0.3.29  USE64BITINT DYNAMIC_ARCH NO_AFFINITY SkylakeX SINGLE_THREADED
        Core in use  :  SkylakeX
   Copyright (c) 2011-2014, The OpenBLAS Project


  ***********************************
  * Starting time: Sun Mar 22 19:17:17 2026
  * Host name:     53ffe4931d9b
  * Process ID:    717
  * Working dir.:  /kaggle/working
  ***********************************

NOTE: MaxCore=3000 MB was set to SCF,MP2,MDCI,CIPSI,MRCI,RASCI and CIS
      => If you want to overwrite this, your respective input block should be placed after the MaxCore statement
Your calculation utilizes the atom-pairwise dispersion correction
with the Becke-Johnson damping scheme (D3BJ)


Warning: RI is on but no J-basis has been assigned. Assigning Def2/J (nothing to worry about!)
================================================================================

----- Orbital basis set information -----
Your calculation utilizes the basis: 6-31G(d,p)
   H-He, Li-Ne : W. J. Hehre, R. Ditchfield and J.A. Pople, J. Chem. Phys. 56, 2257 (1972).
                 Note: He and Ne are unpublished basis sets taken from the Gaussian program.
                 Note: Li and B from J. D. Dill and J. A. Pople, J. Chem. Phys. 62, 2921 (1975).
   Na - Ar     : M. M. Francl, W. J. Pietro, W. J. Hehre, J. S. Binkley, M. S. Gordon, 
                 D. J. DeFrees and J. A. Pople, J. Chem. Phys. 77, 3654 (1982).
   K - Zn      : V. A. Rassolov, J. A. Pople, M. A. Ratner, and T. L. Windus, J. Chem. Phys. 109, 1223 (1998).

----- AuxJ basis set information -----
Your calculation utilizes the auxiliary basis: def2/J
   H-Rn: F. Weigend, Phys. Chem. Chem. Phys. 8, 1057 (2006).
   Fr-Lr: K. Eichkorn, F. Weigend, O. Treutler, R. Ahlrichs; Theor. Chem. Acc. 97, 119 (1997).

================================================================================
                                        WARNINGS
                       Please study these warnings very carefully!
================================================================================


================================================================================
                                       INPUT FILE
================================================================================
NAME = /kaggle/working/Met-2/Met_InterFrag.inp
|  1> 
|  2> !RKS B3LYP 6-31G(d,p) TightSCF D3BJ
|  3> 
|  4> %pal nprocs 2 end
|  5> %maxcore 3000
|  6> 
|  7> %elprop
|  8>   Polar 1      # polarizability via CP-SCF
|  9> end
| 10> 
| 11> %output
| 12>   PrintLevel Normal
| 13>   Print[ P_OrbEn ] 2
| 14> end
| 15> 
| 16> *xyz 0 1
| 17>   S      2.378210    0.841820    0.434457
| 18>   O     -1.284931    1.666435    0.501845
| 19>   O     -2.719898    0.295576   -0.564726
| 20>   N     -1.377520   -1.907217    0.550428
| 21>   C      0.342302   -0.758428   -0.756453
| 22>   C     -0.676245   -0.629080    0.393397
| 23>   C      1.262766    0.442774   -0.969994
| 24>   C     -1.682318    0.456710    0.055770
| 25>   C      3.455412   -0.632405    0.419119
| 26>   H      0.942438   -1.653400   -0.557685
| 27>   H     -0.205896   -0.945589   -1.687511
| 28>   H     -0.140392   -0.303738    1.294011
| 29>   H      0.688255    1.356068   -1.144995
| 30>   H      1.884536    0.273339   -1.854098
| 31>   H     -1.987949   -1.842676    1.363713
| 32>   H     -0.675854   -2.605340    0.790745
| 33>   H      2.905797   -1.534473    0.697296
| 34>   H      4.244633   -0.461898    1.155231
| 35>   H      3.911042   -0.766094   -0.565886
| 36>   H     -1.938689    2.325317    0.202935
| 37> 
| 38> *
| 39> 
| 40>                          ****END OF INPUT****
================================================================================

                       ****************************
                       * Single Point Calculation *
                       ****************************

---------------------------------
CARTESIAN COORDINATES (ANGSTROEM)
---------------------------------
  S      2.378210    0.841820    0.434457
  O     -1.284931    1.666435    0.501845
  O     -2.719898    0.295576   -0.564726
  N     -1.377520   -1.907217    0.550428
  C      0.342302   -0.758428   -0.756453
  C     -0.676245   -0.629080    0.393397
  C      1.262766    0.442774   -0.969994
  C     -1.682318    0.456710    0.055770
  C      3.455412   -0.632405    0.419119
  H      0.942438   -1.653400   -0.557685
  H     -0.205896   -0.945589   -1.687511
  H     -0.140392   -0.303738    1.294011
  H      0.688255    1.356068   -1.144995
  H      1.884536    0.273339   -1.854098
  H     -1.987949   -1.842676    1.363713
  H     -0.675854   -2.605340    0.790745
  H      2.905797   -1.534473    0.697296
  H      4.244633   -0.461898    1.155231
  H      3.911042   -0.766094   -0.565886
  H     -1.938689    2.325317    0.202935

----------------------------
CARTESIAN COORDINATES (A.U.)
----------------------------
  NO LB      ZA    FRAG     MASS         X           Y           Z
   0 S    16.0000    0    32.060    4.494166    1.590809    0.821005
   1 O     8.0000    0    15.999   -2.428168    3.149106    0.948350
   2 O     8.0000    0    15.999   -5.139862    0.558558   -1.067177
   3 N     7.0000    0    14.007   -2.603136   -3.604118    1.040158
   4 C     6.0000    0    12.011    0.646857   -1.433221   -1.429489
   5 C     6.0000    0    12.011   -1.277918   -1.188789    0.743413
   6 C     6.0000    0    12.011    2.386282    0.836722   -1.833023
   7 C     6.0000    0    12.011   -3.179120    0.863057    0.105390
   8 C     6.0000    0    12.011    6.529782   -1.195072    0.792020
   9 H     1.0000    0     1.008    1.780950   -3.124473   -1.053872
  10 H     1.0000    0     1.008   -0.389087   -1.786904   -3.188934
  11 H     1.0000    0     1.008   -0.265302   -0.573982    2.445326
  12 H     1.0000    0     1.008    1.300613    2.562597   -2.163727
  13 H     1.0000    0     1.008    3.561257    0.516536   -3.503737
  14 H     1.0000    0     1.008   -3.756679   -3.482153    2.577044
  15 H     1.0000    0     1.008   -1.277179   -4.923379    1.494291
  16 H     1.0000    0     1.008    5.491161   -2.899734    1.317698
  17 H     1.0000    0     1.008    8.021194   -0.872861    2.183070
  18 H     1.0000    0     1.008    7.390798   -1.447708   -1.069370
  19 H     1.0000    0     1.008   -3.663591    4.394212    0.383492

--------------------------------
INTERNAL COORDINATES (ANGSTROEM)
--------------------------------
 S      0   0   0     0.000000000000     0.00000000     0.00000000
 O      1   0   0     3.755413828947     0.00000000     0.00000000
 O      2   1   0     2.252988767618   118.63097241     0.00000000
 N      3   2   1     2.810310327962    89.13178427    44.71458654
 C      4   3   2     2.446516263254    75.86305868   299.96310623
 C      4   3   2     1.466314956397    60.17951240   335.89200263
 C      5   4   3     1.528312788267   150.12063700    69.13691229
 C      3   2   1     1.219652289947    30.33736087    31.46959695
 C      1   2   3     1.825907652011   138.84195811   326.24037630
 H      5   4   3     1.095740305503    84.52501744   190.04255510
 H      5   4   3     1.096548807162    91.25955339   296.76352734
 H      6   4   3     1.097311000386   113.83432489   131.65785785
 H      7   5   4     1.093066406747   111.25492624   296.33277422
 H      7   5   4     1.094050289037   109.47970181   177.80524260
 H      4   3   2     1.018931595323    88.90626879    87.98680050
 H      4   3   2     1.018559354762   163.72141648   295.09416096
 H      9   1   2     1.092330429942   111.57886049   344.91910903
 H      9   1   2     1.092613060710   107.12646567   226.05093905
 H      9   1   2     1.093483559843   110.61576413   107.41442185
 H      2   1   3     0.975126761292   142.82828396   245.39348021

---------------------------
INTERNAL COORDINATES (A.U.)
---------------------------
 S      0   0   0     0.000000000000     0.00000000     0.00000000
 O      1   0   0     7.096703656251     0.00000000     0.00000000
 O      2   1   0     4.257531753598   118.63097241     0.00000000
 N      3   2   1     5.310716871178    89.13178427    44.71458654
 C      4   3   2     4.623245719734    75.86305868   299.96310623
 C      4   3   2     2.770933693664    60.17951240   335.89200263
 C      5   4   3     2.888092616795   150.12063700    69.13691229
 C      3   2   1     2.304808806609    30.33736087    31.46959695
 C      1   2   3     3.450465408132   138.84195811   326.24037630
 H      5   4   3     2.070649091300    84.52501744   190.04255510
 H      5   4   3     2.072176938015    91.25955339   296.76352734
 H      6   4   3     2.073617274469   113.83432489   131.65785785
 H      7   5   4     2.065596154941   111.25492624   296.33277422
 H      7   5   4     2.067455423017   109.47970181   177.80524260
 H      4   3   2     1.925501664360    88.90626879    87.98680050
 H      4   3   2     1.924798231644   163.72141648   295.09416096
 H      9   1   2     2.064205360339   111.57886049   344.91910903
 H      9   1   2     2.064739455087   107.12646567   226.05093905
 H      9   1   2     2.066384460048   110.61576413   107.41442185
 H      2   1   3     1.842722524700   142.82828396   245.39348021

---------------------
BASIS SET INFORMATION
---------------------
There are 5 groups of distinct atoms

 Group   1 Type S   : 16s10p1d contracted to 4s3p1d pattern {6631/631/1}
 Group   2 Type O   : 10s4p1d contracted to 3s2p1d pattern {631/31/1}
 Group   3 Type N   : 10s4p1d contracted to 3s2p1d pattern {631/31/1}
 Group   4 Type C   : 10s4p1d contracted to 3s2p1d pattern {631/31/1}
 Group   5 Type H   : 4s1p contracted to 2s1p pattern {31/1}

Atom   0S    basis set group =>   1
Atom   1O    basis set group =>   2
Atom   2O    basis set group =>   2
Atom   3N    basis set group =>   3
Atom   4C    basis set group =>   4
Atom   5C    basis set group =>   4
Atom   6C    basis set group =>   4
Atom   7C    basis set group =>   4
Atom   8C    basis set group =>   4
Atom   9H    basis set group =>   5
Atom  10H    basis set group =>   5
Atom  11H    basis set group =>   5
Atom  12H    basis set group =>   5
Atom  13H    basis set group =>   5
Atom  14H    basis set group =>   5
Atom  15H    basis set group =>   5
Atom  16H    basis set group =>   5
Atom  17H    basis set group =>   5
Atom  18H    basis set group =>   5
Atom  19H    basis set group =>   5
---------------------------------
AUXILIARY/J BASIS SET INFORMATION
---------------------------------
There are 5 groups of distinct atoms

 Group   1 Type S   : 14s5p5d2f1g contracted to 8s4p3d1f1g pattern {71111111/2111/311/2/1}
 Group   2 Type O   : 12s5p4d2f1g contracted to 6s4p3d1f1g pattern {711111/2111/211/2/1}
 Group   3 Type N   : 12s5p4d2f1g contracted to 6s4p3d1f1g pattern {711111/2111/211/2/1}
 Group   4 Type C   : 12s5p4d2f1g contracted to 6s4p3d1f1g pattern {711111/2111/211/2/1}
 Group   5 Type H   : 5s2p1d contracted to 3s1p1d pattern {311/2/1}

Atom   0S    basis set group =>   1
Atom   1O    basis set group =>   2
Atom   2O    basis set group =>   2
Atom   3N    basis set group =>   3
Atom   4C    basis set group =>   4
Atom   5C    basis set group =>   4
Atom   6C    basis set group =>   4
Atom   7C    basis set group =>   4
Atom   8C    basis set group =>   4
Atom   9H    basis set group =>   5
Atom  10H    basis set group =>   5
Atom  11H    basis set group =>   5
Atom  12H    basis set group =>   5
Atom  13H    basis set group =>   5
Atom  14H    basis set group =>   5
Atom  15H    basis set group =>   5
Atom  16H    basis set group =>   5
Atom  17H    basis set group =>   5
Atom  18H    basis set group =>   5
Atom  19H    basis set group =>   5


           ************************************************************
           *        Program running with 2 parallel MPI-processes     *
           *              working on a common directory               *
           ************************************************************
------------------------------------------------------------------------------
                             ORCA STARTUP CALCULATIONS
                           -- RI-GTO INTEGRALS CHOSEN --
------------------------------------------------------------------------------
------------------------------------------------------------------------------
                   ___                                                        
                  /   \      - P O W E R E D   B Y -                         
                 /     \                                                     
                 |  |  |   _    _      __       _____    __    __             
                 |  |  |  | |  | |    /  \     |  _  \  |  |  /  |          
                  \  \/   | |  | |   /    \    | | | |  |  | /  /          
                 / \  \   | |__| |  /  /\  \   | |_| |  |  |/  /          
                |  |  |   |  __  | /  /__\  \  |    /   |      \           
                |  |  |   | |  | | |   __   |  |    \   |  |\   \          
                \     /   | |  | | |  |  |  |  | |\  \  |  | \   \       
                 \___/    |_|  |_| |__|  |__|  |_| \__\ |__|  \__/        
                                                                              
                      - O R C A' S   B I G   F R I E N D -                    
                                      &                                       
                       - I N T E G R A L  F E E D E R -                       
                                                                              
 v1 FN, 2020, v2 2021, v3 2022-2024                                           
------------------------------------------------------------------------------


----------------------
SHARK INTEGRAL PACKAGE
----------------------

Number of atoms                             ...     20
Number of basis functions                   ...    185
Number of shells                            ...     89
Maximum angular momentum                    ...      2
Integral batch strategy                     ... SHARK/LIBINT Hybrid
RI-J (if used) integral strategy            ... SPLIT-RIJ (Revised 2003 algorithm where possible)
Printlevel                                  ...      1
Contraction scheme used                     ... SEGMENTED contraction
Prescreening option                         ... SCHWARTZ
   Thresh                                   ... 2.500e-11
   Tcut                                     ... 2.500e-12
   Tpresel                                  ... 2.500e-12 
Coulomb Range Separation                    ... NOT USED
Exchange Range Separation                   ... NOT USED
Multipole approximations                    ... NOT USED
Finite Nucleus Model                        ... NOT USED
CABS basis                                  ... NOT available
Auxiliary Coulomb fitting basis             ... AVAILABLE
   # of basis functions in Aux-J            ...    564
   # of shells in Aux-J                     ...    192
   Maximum angular momentum in Aux-J        ...      4
Auxiliary J/K fitting basis                 ... NOT available
Auxiliary Correlation fitting basis         ... NOT available
Auxiliary 'external' fitting basis          ... NOT available

Checking pre-screening integrals            ... done (  0.0 sec) Dimension = 89
   => SHARK Basis and OBASIS are compatible. Storing Pre-screening
Shell pair information
Shell pair cut-off parameter TPreSel        ...   2.5e-12
Total number of shell pairs                 ...      4005
Shell pairs after pre-screening             ...      3534
Total number of primitive shell pairs       ...     20755
Primitive shell pairs kept                  ...     11813
          la=0 lb=0:   1127 shell pairs
          la=1 lb=0:   1319 shell pairs
          la=1 lb=1:    410 shell pairs
          la=2 lb=0:    399 shell pairs
          la=2 lb=1:    239 shell pairs
          la=2 lb=2:     40 shell pairs

Checking whether 4 symmetric matrices of dimension 185 fit in memory
:Max Core in MB      =   3000.00
 MB in use           =      8.25
 MB left             =   2991.75
 MB needed           =      0.53
 Data fit in memory  = YES
Calculating RI/J V-Matrix + Cholesky decomp.... done (  0.0 sec)
Calculating Nuclear repulsion               ... done (  0.0 sec) ENN=    555.615844582747 Eh

Diagonalization of the overlap matrix:
Smallest eigenvalue                        ... 3.330e-03
Time for diagonalization                   ...    0.005 sec
Threshold for overlap eigenvalues          ... 1.000e-07
Number of eigenvalues below threshold      ... 0
Time for construction of square roots      ...    0.002 sec
Total time needed                          ...    0.007 sec

-------------------
DFT GRID GENERATION
-------------------

General Integration Accuracy     IntAcc      ... 4.388
Radial Grid Type                 RadialGrid  ... OptM3 with GC (2021)
Angular Grid (max. ang.)         AngularGrid ... 4 (Lebedev-302)
Angular grid pruning method      GridPruning ... 4 (adaptive)
Weight generation scheme         WeightScheme... mBecke (2022)
Basis function cutoff            BFCut       ... 1.0000e-11
Integration weight cutoff        WCut        ... 1.0000e-14
Partially contracted basis set               ... off
Rotationally invariant grid construction     ... off
Angular grids for H and He will be reduced by one unit

Total number of grid points                  ...    90793
Total number of batches                      ...     1429
Average number of points per batch           ...       63
Average number of grid points per atom       ...     4540

--------------------
COSX GRID GENERATION
--------------------

GRIDX 1
-------
General Integration Accuracy     IntAcc      ... 3.816
Radial Grid Type                 RadialGrid  ... OptM3 with GC (2021)
Angular Grid (max. ang.)         AngularGrid ... 1 (Lebedev-50)
Angular grid pruning method      GridPruning ... 4 (adaptive)
Weight generation scheme         WeightScheme... mBecke (2022)
Basis function cutoff            BFCut       ... 1.0000e-11
Integration weight cutoff        WCut        ... 1.0000e-14
Partially contracted basis set               ... on
Rotationally invariant grid construction     ... off
Angular grids for H and He will be reduced by one unit

Total number of grid points                  ...    12614
Total number of batches                      ...      109
Average number of points per batch           ...      115
Average number of grid points per atom       ...      631
UseSFitting                                  ... on

GRIDX 2
-------
General Integration Accuracy     IntAcc      ... 4.020
Radial Grid Type                 RadialGrid  ... OptM3 with GC (2021)
Angular Grid (max. ang.)         AngularGrid ... 2 (Lebedev-110)
Angular grid pruning method      GridPruning ... 4 (adaptive)
Weight generation scheme         WeightScheme... mBecke (2022)
Basis function cutoff            BFCut       ... 1.0000e-11
Integration weight cutoff        WCut        ... 1.0000e-14
Partially contracted basis set               ... on
Rotationally invariant grid construction     ... off
Angular grids for H and He will be reduced by one unit

Total number of grid points                  ...    24614
Total number of batches                      ...      203
Average number of points per batch           ...      121
Average number of grid points per atom       ...     1231
UseSFitting                                  ... on

GRIDX 3
-------
General Integration Accuracy     IntAcc      ... 4.338
Radial Grid Type                 RadialGrid  ... OptM3 with GC (2021)
Angular Grid (max. ang.)         AngularGrid ... 3 (Lebedev-194)
Angular grid pruning method      GridPruning ... 4 (adaptive)
Weight generation scheme         WeightScheme... mBecke (2022)
Basis function cutoff            BFCut       ... 1.0000e-11
Integration weight cutoff        WCut        ... 1.0000e-14
Partially contracted basis set               ... on
Rotationally invariant grid construction     ... off
Angular grids for H and He will be reduced by one unit

Total number of grid points                  ...    54370
Total number of batches                      ...      434
Average number of points per batch           ...      125
Average number of grid points per atom       ...     2718
UseSFitting                                  ... on
Grids setup in   1.7 sec
Initializing property integral containers    ... done (  0.0 sec)

SHARK setup successfully completed in   1.9 seconds

Maximum memory used throughout the entire STARTUP-calculation: 31.0 MB


           ************************************************************
           *        Program running with 2 parallel MPI-processes     *
           *              working on a common directory               *
           ************************************************************
-------------------------------------------------------------------------------
                                 ORCA GUESS
                   Start orbitals & Density for SCF / CASSCF
-------------------------------------------------------------------------------

------------
SCF SETTINGS
------------
Hamiltonian:
 Density Functional     Method          .... DFT(GTOs)
 Exchange Functional    Exchange        .... B88
   X-Alpha parameter    XAlpha          ....  0.666667
   Becke's b parameter  XBeta           ....  0.004200
 Correlation Functional Correlation     .... LYP
 LDA part of GGA corr.  LDAOpt          .... VWN-5
 Gradients option       PostSCFGGA      .... off
 Hybrid DFT is turned on
   Fraction HF Exchange ScalHFX         ....  0.200000
   Scaling of DF-GGA-X  ScalDFX         ....  0.720000
   Scaling of DF-GGA-C  ScalDFC         ....  0.810000
   Scaling of DF-LDA-C  ScalLDAC        ....  1.000000
   Perturbative correction              ....  0.000000
   NL short-range parameter             ....  4.800000
 RI-approximation to the Coulomb term is turned on
   Number of AuxJ basis functions       .... 564
   RIJ-COSX (HFX calculated with COS-X)).... on


General Settings:
 Integral files         IntName         .... /kaggle/working/Met-2/Met_InterFrag
 Hartree-Fock type      HFTyp           .... RHF
 Total Charge           Charge          ....    0
 Multiplicity           Mult            ....    1
 Number of Electrons    NEL             ....   80
 Basis Dimension        Dim             ....  185
 Nuclear Repulsion      ENuc            ....    555.6158445827 Eh

Convergence Acceleration:
 AO-DIIS                CNVDIIS         .... on
   Start iteration      DIISMaxIt       ....    12
   Startup error        DIISStart       ....  0.200000
   # of expansion vecs  DIISMaxEq       ....     5
   Bias factor          DIISBfac        ....   1.050
   Max. coefficient     DIISMaxC        ....  10.000
 MO-DIIS                CNVKDIIS        .... off
 Trust-Rad. Augm. Hess. CNVTRAH         .... auto
   Auto Start mean grad. ratio tolernc. ....  1.125000
   Auto Start start iteration           ....    50
   Auto Start num. interpolation iter.  ....    10
   Max. Number of Micro iterations      ....    24
   Max. Number of Macro iterations      .... Maxiter - #DIIS iter
   Number of Davidson start vectors     ....     2
   Converg. threshold    (grad. norm)   ....   1.000e-05
   Grad. Scal. Fac. for Micro threshold ....   0.100
   Minimum threshold for Micro iter.    ....   1.000e-02
   NR start threshold (gradient norm)   ....   1.000e-04
   Initial trust radius                 ....   0.400
   Minimum AH scaling param. (alpha)    ....   1.000
   Maximum AH scaling param. (alpha)    .... 1000.000
   Quad. conv. algorithm                .... NR
   White noise on init. David. guess    .... on
   Maximum white noise                  ....   0.010
   Pseudo random numbers                .... off
   Inactive MOs                         .... canonical
   Orbital update algorithm             .... Taylor
   Preconditioner                       .... Diag
   Full preconditioner red. dimension   ....   250
 SOSCF                 CNVSOSCF           .... on
   Start iteration     SOSCFMaxIt         ....   150
   Startup grad/error  SOSCFStart         ....  0.003300
   Hessian update      SOSCFHessUp        .... L-BFGS
   Autom. constraints  SOSCFAutoConstrain .... off
 Level Shifting         CNVShift        .... on
   Level shift para.    LevelShift      ....    0.2500
   Turn off err/grad.   ShiftErr        ....    0.0010
 Zerner damping         CNVZerner       .... off
 Static damping         CNVDamp         .... on
   Fraction old density DampFac         ....    0.7000
   Max. Damping (<1)    DampMax         ....    0.9800
   Min. Damping (>=0)   DampMin         ....    0.0000
   Turn off err/grad.   DampErr         ....    0.1000

SCF Procedure:
 Maximum # iterations   MaxIter         ....   125
 SCF integral mode      SCFMode         .... Direct
   Integral package                     .... SHARK and LIBINT hybrid scheme
 Reset frequency        DirectResetFreq ....    20
 Integral Threshold     Thresh          ....  2.500e-11 Eh
 Primitive CutOff       TCut            ....  2.500e-12 Eh

Convergence Tolerance:
 Convergence Check Mode ConvCheckMode   .... Total+1el-Energy
 Convergence forced     ConvForced      .... 0
 Energy Change          TolE            ....  1.000e-08 Eh
 1-El. energy change                    ....  1.000e-05 Eh
 Orbital Gradient       TolG            ....  1.000e-05
 Orbital Rotation angle TolX            ....  1.000e-05
 DIIS Error             TolErr          ....  5.000e-07

------------------------------
INITIAL GUESS: MODEL POTENTIAL
------------------------------
Loading Hartree-Fock densities                     ... done
Calculating cut-offs                               ... done
Initializing the effective Hamiltonian             ... done
Setting up the integral package (SHARK)            ... done
Starting the Coulomb interaction                   ... done (   0.1 sec)
Making the grid                                    ... done (   0.2 sec)
Mapping shells                                     ... done
Starting the XC term evaluation                    ... done (   0.1 sec)
  promolecular density results
     # of electrons  =     79.994653143
     EX              =    -76.961083092
     EC              =     -2.815728336
     EX+EC           =    -79.776811428
Transforming the Hamiltonian                       ... done (   0.0 sec)
Diagonalizing the Hamiltonian                      ... done (   0.0 sec)
Back transforming the eigenvectors                 ... done (   0.0 sec)
Now organizing SCF variables                       ... done
                      ------------------
                      INITIAL GUESS DONE (   0.5 sec)
                      ------------------
             **** ENERGY FILE WAS UPDATED (/kaggle/working/Met-2/Met_InterFrag.en.tmp) ****
Finished Guess after   0.8 sec
Maximum memory used throughout the entire GUESS-calculation: 12.1 MB


           ************************************************************
           *        Program running with 2 parallel MPI-processes     *
           *              working on a common directory               *
           ************************************************************

-------------------------------------------------------------------------------------------
                                      ORCA LEAN-SCF
                              memory conserving SCF solver
-------------------------------------------------------------------------------------------

----------------------------------------D-I-I-S--------------------------------------------
Iteration    Energy (Eh)           Delta-E    RMSDP     MaxDP     DIISErr   Damp  Time(sec)
-------------------------------------------------------------------------------------------
               ***  Starting incremental Fock matrix formation  ***
    1    -799.9221276785305008     0.00e+00  4.69e-03  9.73e-02  2.66e-01  0.700   3.9
    2    -800.0840712517675684    -1.62e-01  3.09e-03  5.38e-02  1.14e-01  0.700   2.2
                               ***Turning on AO-DIIS***
    3    -800.1415402378196404    -5.75e-02  1.22e-03  1.99e-02  3.40e-02  0.700   2.1
    4    -800.1771126746642722    -3.56e-02  1.87e-03  3.97e-02  1.35e-02  0.000   2.0
    5    -800.2569485749869500    -7.98e-02  4.58e-04  7.90e-03  7.05e-03  0.000   2.1
                              *** Initializing SOSCF ***
---------------------------------------S-O-S-C-F--------------------------------------
Iteration    Energy (Eh)           Delta-E    RMSDP     MaxDP     MaxGrad    Time(sec)
--------------------------------------------------------------------------------------
    6    -800.2574437859256022    -4.95e-04  1.32e-04  1.67e-03  2.13e-03     2.0
               *** Restarting incremental Fock matrix formation ***
    7    -800.2574422774908953     1.51e-06  9.17e-05  1.57e-03  3.59e-04     3.9
    8    -800.2574431738904650    -8.96e-07  2.99e-05  8.76e-04  4.34e-04     2.8
    9    -800.2574456095466076    -2.44e-06  2.41e-05  3.67e-04  2.12e-04     2.6
   10    -800.2574453086120911     3.01e-07  1.39e-05  2.22e-04  1.91e-04     2.5
   11    -800.2574459690002868    -6.60e-07  3.49e-06  7.72e-05  9.42e-06     2.3
   12    -800.2574459746543880    -5.65e-09  1.78e-06  4.27e-05  1.13e-05     2.0
                 **** Energy Check signals convergence ****

               *****************************************************
               *                     SUCCESS                       *
               *           SCF CONVERGED AFTER  12 CYCLES          *
               *****************************************************

Recomputing exchange energy using gridx3       ... done (    6.333 sec)
Old exchange energy                            :    -15.597316802 Eh
New exchange energy                            :    -15.597331397 Eh
Exchange energy change after final integration :     -0.000014596 Eh
Total energy after final integration           :   -800.257460574 Eh
             **** ENERGY FILE WAS UPDATED (/kaggle/working/Met-2/Met_InterFrag.en.tmp) ****

----------------
TOTAL SCF ENERGY
----------------

Total Energy       :       -800.25746057443394 Eh          -21776.11258 eV

Components:
Nuclear Repulsion  :        555.61584458274672 Eh           15119.07577 eV
Electronic Energy  :      -1355.87329056153226 Eh          -36895.18795 eV
One Electron Energy:      -2200.84535023842773 Eh          -59888.04663 eV
Two Electron Energy:        844.97205967689547 Eh           22992.85868 eV

Virial components:
Potential Energy   :      -1597.27744404322539 Eh          -43464.12893 eV
Kinetic Energy     :        797.01998346879134 Eh           21688.01635 eV
Virial Ratio       :          2.00406197733155

DFT components:
N(Alpha)           :       40.000063940891 electrons
N(Beta)            :       40.000063940891 electrons
N(Total)           :       80.000127881783 electrons
E(X)               :      -61.926592919235 Eh       
E(C)               :       -3.316524519001 Eh       
E(XC)              :      -65.243117438235 Eh       

---------------
SCF CONVERGENCE
---------------

  Last Energy change         ...    5.6541e-09  Tolerance :   1.0000e-08
  Last MAX-Density change    ...    4.2730e-05  Tolerance :   1.0000e-07
  Last RMS-Density change    ...    1.7777e-06  Tolerance :   5.0000e-09
  Last DIIS Error            ...    2.1320e-03  Tolerance :   5.0000e-07
  Last Orbital Gradient      ...    1.1316e-05  Tolerance :   1.0000e-05
  Last Orbital Rotation      ...    8.0588e-06  Tolerance :   1.0000e-05


----------------
ORBITAL ENERGIES
----------------

  NO   OCC          E(Eh)            E(eV) 
   0   2.0000     -88.847350     -2417.6593 
   1   2.0000     -19.192268      -522.2482 
   2   2.0000     -19.128440      -520.5113 
   3   2.0000     -14.314256      -389.5107 
   4   2.0000     -10.308869      -280.5186 
   5   2.0000     -10.220602      -278.1167 
   6   2.0000     -10.209659      -277.8189 
   7   2.0000     -10.204816      -277.6872 
   8   2.0000     -10.192654      -277.3562 
   9   2.0000      -7.923108      -215.5987 
  10   2.0000      -5.887569      -160.2089 
  11   2.0000      -5.883799      -160.1063 
  12   2.0000      -5.877011      -159.9216 
  13   2.0000      -1.101365       -29.9697 
  14   2.0000      -1.004972       -27.3467 
  15   2.0000      -0.893084       -24.3020 
  16   2.0000      -0.810141       -22.0451 
  17   2.0000      -0.755404       -20.5556 
  18   2.0000      -0.703408       -19.1407 
  19   2.0000      -0.656383       -17.8611 
  20   2.0000      -0.598758       -16.2930 
  21   2.0000      -0.564124       -15.3506 
  22   2.0000      -0.506531       -13.7834 
  23   2.0000      -0.484983       -13.1971 
  24   2.0000      -0.477092       -12.9823 
  25   2.0000      -0.461203       -12.5500 
  26   2.0000      -0.440695       -11.9919 
  27   2.0000      -0.428913       -11.6713 
  28   2.0000      -0.428419       -11.6579 
  29   2.0000      -0.416302       -11.3282 
  30   2.0000      -0.401544       -10.9266 
  31   2.0000      -0.387191       -10.5360 
  32   2.0000      -0.376069       -10.2334 
  33   2.0000      -0.354522        -9.6470 
  34   2.0000      -0.345711        -9.4073 
  35   2.0000      -0.310642        -8.4530 
  36   2.0000      -0.302130        -8.2214 
  37   2.0000      -0.265329        -7.2200 
  38   2.0000      -0.245733        -6.6867 
  39   2.0000      -0.216520        -5.8918 
  40   0.0000       0.008368         0.2277 
  41   0.0000       0.044818         1.2196 
  42   0.0000       0.069239         1.8841 
  43   0.0000       0.076294         2.0761 
  44   0.0000       0.089727         2.4416 
  45   0.0000       0.097459         2.6520 
  46   0.0000       0.125326         3.4103 
  47   0.0000       0.134299         3.6545 
  48   0.0000       0.141620         3.8537 
  49   0.0000       0.159858         4.3500 
  50   0.0000       0.162671         4.4265 
  51   0.0000       0.177978         4.8430 
  52   0.0000       0.187528         5.1029 
  53   0.0000       0.206890         5.6298 
  54   0.0000       0.221723         6.0334 
  55   0.0000       0.229229         6.2376 
  56   0.0000       0.255174         6.9436 
  57   0.0000       0.260892         7.0992 
  58   0.0000       0.333936         9.0869 
  59   0.0000       0.367472         9.9994 
  60   0.0000       0.380632        10.3575 
  61   0.0000       0.392990        10.6938 
  62   0.0000       0.402525        10.9533 
  63   0.0000       0.447118        12.1667 
  64   0.0000       0.460967        12.5435 
  65   0.0000       0.505045        13.7430 
  66   0.0000       0.535662        14.5761 
  67   0.0000       0.544616        14.8197 
  68   0.0000       0.575527        15.6609 
  69   0.0000       0.589816        16.0497 
  70   0.0000       0.592856        16.1324 
  71   0.0000       0.619203        16.8494 
  72   0.0000       0.641839        17.4653 
  73   0.0000       0.656683        17.8693 
  74   0.0000       0.672726        18.3058 
  75   0.0000       0.678640        18.4667 
  76   0.0000       0.718214        19.5436 
  77   0.0000       0.721009        19.6196 
  78   0.0000       0.747898        20.3513 
  79   0.0000       0.759199        20.6589 
  80   0.0000       0.791746        21.5445 
  81   0.0000       0.825873        22.4732 
  82   0.0000       0.833432        22.6788 
  83   0.0000       0.842986        22.9388 
  84   0.0000       0.847410        23.0592 
  85   0.0000       0.853783        23.2326 
  86   0.0000       0.865913        23.5627 
  87   0.0000       0.877508        23.8782 
  88   0.0000       0.885437        24.0940 
  89   0.0000       0.894551        24.3420 
  90   0.0000       0.908852        24.7311 
  91   0.0000       0.914377        24.8815 
  92   0.0000       0.934404        25.4264 
  93   0.0000       0.939471        25.5643 
  94   0.0000       0.952792        25.9268 
  95   0.0000       0.971931        26.4476 
  96   0.0000       0.988171        26.8895 
  97   0.0000       1.006588        27.3907 
  98   0.0000       1.014123        27.5957 
  99   0.0000       1.041762        28.3478 
 100   0.0000       1.063623        28.9427 
 101   0.0000       1.069185        29.0940 
 102   0.0000       1.093224        29.7481 
 103   0.0000       1.128812        30.7165 
 104   0.0000       1.136194        30.9174 
 105   0.0000       1.232535        33.5390 
 106   0.0000       1.293784        35.2057 
 107   0.0000       1.314745        35.7760 
 108   0.0000       1.369798        37.2741 
 109   0.0000       1.408008        38.3138 
 110   0.0000       1.432545        38.9815 
 111   0.0000       1.449638        39.4467 
 112   0.0000       1.470260        40.0078 
 113   0.0000       1.486880        40.4601 
 114   0.0000       1.536269        41.8040 
 115   0.0000       1.551232        42.2112 
 116   0.0000       1.572842        42.7992 
 117   0.0000       1.606428        43.7131 
 118   0.0000       1.703868        46.3646 
 119   0.0000       1.717532        46.7364 
 120   0.0000       1.744824        47.4791 
 121   0.0000       1.764014        48.0012 
 122   0.0000       1.796341        48.8809 
 123   0.0000       1.820181        49.5296 
 124   0.0000       1.849529        50.3282 
 125   0.0000       1.880153        51.1616 
 126   0.0000       1.894023        51.5390 
 127   0.0000       1.915148        52.1138 
 128   0.0000       1.942961        52.8706 
 129   0.0000       1.956465        53.2381 
 130   0.0000       1.989790        54.1449 
 131   0.0000       2.018014        54.9129 
 132   0.0000       2.030154        55.2433 
 133   0.0000       2.057170        55.9784 
 134   0.0000       2.060900        56.0799 
 135   0.0000       2.074525        56.4507 
 136   0.0000       2.093996        56.9805 
 137   0.0000       2.123091        57.7722 
 138   0.0000       2.137131        58.1543 
 139   0.0000       2.161715        58.8232 
 140   0.0000       2.204512        59.9878 
 141   0.0000       2.229623        60.6711 
 142   0.0000       2.235504        60.8312 
 143   0.0000       2.285100        62.1807 
 144   0.0000       2.289754        62.3074 
 145   0.0000       2.312974        62.9392 
 146   0.0000       2.328594        63.3643 
 147   0.0000       2.337939        63.6186 
 148   0.0000       2.344412        63.7947 
 149   0.0000       2.393834        65.1395 
 150   0.0000       2.401959        65.3606 
 151   0.0000       2.456407        66.8422 
 152   0.0000       2.499757        68.0218 
 153   0.0000       2.526777        68.7571 
 154   0.0000       2.547141        69.3112 
 155   0.0000       2.571930        69.9858 
 156   0.0000       2.594737        70.6064 
 157   0.0000       2.614353        71.1402 
 158   0.0000       2.632626        71.6374 
 159   0.0000       2.666177        72.5504 
 160   0.0000       2.693078        73.2824 
 161   0.0000       2.722108        74.0723 
 162   0.0000       2.751424        74.8700 
 163   0.0000       2.796487        76.0963 
 164   0.0000       2.810038        76.4650 
 165   0.0000       2.816321        76.6360 
 166   0.0000       2.846997        77.4707 
 167   0.0000       2.863051        77.9076 
 168   0.0000       2.874462        78.2181 
 169   0.0000       2.899391        78.8964 
 170   0.0000       2.922234        79.5180 
 171   0.0000       2.965339        80.6910 
 172   0.0000       3.082372        83.8756 
 173   0.0000       3.165433        86.1358 
 174   0.0000       3.174816        86.3911 
 175   0.0000       3.284411        89.3734 
 176   0.0000       3.300998        89.8247 
 177   0.0000       3.325923        90.5030 
 178   0.0000       3.380089        91.9769 
 179   0.0000       3.407442        92.7212 
 180   0.0000       3.419677        93.0541 
 181   0.0000       3.448177        93.8297 
 182   0.0000       3.478076        94.6433 
 183   0.0000       3.502090        95.2967 
 184   0.0000       3.549694        96.5921 

                    ********************************
                    * MULLIKEN POPULATION ANALYSIS *
                    ********************************

-----------------------
MULLIKEN ATOMIC CHARGES
-----------------------
   0 S :    0.077957
   1 O :   -0.468407
   2 O :   -0.420595
   3 N :   -0.557510
   4 C :   -0.175732
   5 C :   -0.009185
   6 C :   -0.331786
   7 C :    0.514376
   8 C :   -0.449585
   9 H :    0.096927
  10 H :    0.131940
  11 H :    0.121948
  12 H :    0.141317
  13 H :    0.128367
  14 H :    0.238580
  15 H :    0.231262
  16 H :    0.130035
  17 H :    0.142878
  18 H :    0.134038
  19 H :    0.323176
Sum of atomic charges:   -0.0000000

--------------------------------
MULLIKEN REDUCED ORBITAL CHARGES
--------------------------------
  0 S s       :     5.845605  s :     5.845605
      pz      :     3.421976  p :    10.010944
      px      :     3.283893
      py      :     3.305075
      dz2     :     0.012792  d :     0.065494
      dxz     :     0.016119
      dyz     :     0.007821
      dx2y2   :     0.009427
      dxy     :     0.019334

  1 O s       :     3.824713  s :     3.824713
      pz      :     1.734885  p :     4.620468
      px      :     1.632750
      py      :     1.252834
      dz2     :     0.003362  d :     0.023225
      dxz     :     0.003546
      dyz     :     0.004965
      dx2y2   :     0.003163
      dxy     :     0.008189

  2 O s       :     3.857698  s :     3.857698
      pz      :     1.390443  p :     4.535003
      px      :     1.379714
      py      :     1.764847
      dz2     :     0.006251  d :     0.027893
      dxz     :     0.008032
      dyz     :     0.001991
      dx2y2   :     0.006317
      dxy     :     0.005304

  3 N s       :     3.632064  s :     3.632064
      pz      :     1.525985  p :     3.894579
      px      :     1.259450
      py      :     1.109144
      dz2     :     0.007106  d :     0.030867
      dxz     :     0.007549
      dyz     :     0.003343
      dx2y2   :     0.003023
      dxy     :     0.009846

  4 C s       :     3.223859  s :     3.223859
      pz      :     0.995982  p :     2.914497
      px      :     0.953714
      py      :     0.964801
      dz2     :     0.008528  d :     0.037376
      dxz     :     0.010176
      dyz     :     0.003356
      dx2y2   :     0.005065
      dxy     :     0.010251

  5 C s       :     3.179502  s :     3.179502
      pz      :     1.005863  p :     2.772744
      px      :     0.928744
      py      :     0.838137
      dz2     :     0.009742  d :     0.056940
      dxz     :     0.011706
      dyz     :     0.010607
      dx2y2   :     0.007944
      dxy     :     0.016941

  6 C s       :     3.292860  s :     3.292860
      pz      :     0.970010  p :     3.000820
      px      :     1.002299
      py      :     1.028511
      dz2     :     0.008507  d :     0.038107
      dxz     :     0.010055
      dyz     :     0.003641
      dx2y2   :     0.005337
      dxy     :     0.010567

  7 C s       :     2.990224  s :     2.990224
      pz      :     0.771771  p :     2.373295
      px      :     0.825381
      py      :     0.776144
      dz2     :     0.016308  d :     0.122105
      dxz     :     0.016694
      dyz     :     0.022457
      dx2y2   :     0.028415
      dxy     :     0.038231

  8 C s       :     3.315913  s :     3.315913
      pz      :     1.088309  p :     3.102300
      px      :     1.030610
      py      :     0.983381
      dz2     :     0.006222  d :     0.031372
      dxz     :     0.008587
      dyz     :     0.003212
      dx2y2   :     0.005480
      dxy     :     0.007871

  9 H s       :     0.891492  s :     0.891492
      pz      :     0.002474  p :     0.011581
      px      :     0.003785
      py      :     0.005322

 10 H s       :     0.856711  s :     0.856711
      pz      :     0.005427  p :     0.011349
      px      :     0.003496
      py      :     0.002425

 11 H s       :     0.866794  s :     0.866794
      pz      :     0.005409  p :     0.011258
      px      :     0.003582
      py      :     0.002267

 12 H s       :     0.846784  s :     0.846784
      pz      :     0.002529  p :     0.011899
      px      :     0.003682
      py      :     0.005688

 13 H s       :     0.860101  s :     0.860101
      pz      :     0.005422  p :     0.011532
      px      :     0.003837
      py      :     0.002273

 14 H s       :     0.737687  s :     0.737687
      pz      :     0.010293  p :     0.023733
      px      :     0.009069
      py      :     0.004370

 15 H s       :     0.744913  s :     0.744913
      pz      :     0.006873  p :     0.023825
      px      :     0.008169
      py      :     0.008784

 16 H s       :     0.858402  s :     0.858402
      pz      :     0.002635  p :     0.011563
      px      :     0.003499
      py      :     0.005429

 17 H s       :     0.845366  s :     0.845366
      pz      :     0.004439  p :     0.011756
      px      :     0.004893
      py      :     0.002423

 18 H s       :     0.854424  s :     0.854424
      pz      :     0.006061  p :     0.011538
      px      :     0.003174
      py      :     0.002303

 19 H s       :     0.639266  s :     0.639266
      pz      :     0.009709  p :     0.037558
      px      :     0.014320
      py      :     0.013529


------------------------
MULLIKEN OVERLAP CHARGES
------------------------
B(  0-S ,  4-C ) :  -0.1109 B(  0-S ,  6-C ) :   0.5369 B(  0-S ,  8-C ) :   0.5131 
B(  0-S , 12-H ) :  -0.0767 B(  0-S , 13-H ) :  -0.0945 B(  0-S , 16-H ) :  -0.0980 
B(  0-S , 17-H ) :  -0.0665 B(  0-S , 18-H ) :  -0.0896 B(  1-O ,  2-O ) :  -0.1665 
B(  1-O ,  5-C ) :  -0.1671 B(  1-O ,  7-C ) :   0.5537 B(  1-O , 19-H ) :   0.5441 
B(  2-O ,  5-C ) :  -0.1636 B(  2-O ,  7-C ) :   1.2600 B(  3-N ,  4-C ) :  -0.0866 
B(  3-N ,  5-C ) :   0.6047 B(  3-N ,  7-C ) :  -0.0920 B(  3-N , 11-H ) :  -0.0900 
B(  3-N , 14-H ) :   0.6693 B(  3-N , 15-H ) :   0.6591 B(  4-C ,  5-C ) :   0.6993 
B(  4-C ,  6-C ) :   0.6497 B(  4-C ,  9-H ) :   0.7744 B(  4-C , 10-H ) :   0.7380 
B(  4-C , 11-H ) :  -0.0937 B(  4-C , 12-H ) :  -0.0657 B(  4-C , 13-H ) :  -0.0766 
B(  5-C ,  6-C ) :  -0.0723 B(  5-C ,  7-C ) :   0.5475 B(  5-C ,  9-H ) :  -0.0768 
B(  5-C , 10-H ) :  -0.0732 B(  5-C , 11-H ) :   0.7728 B(  5-C , 14-H ) :  -0.0723 
B(  5-C , 15-H ) :  -0.0632 B(  6-C ,  9-H ) :  -0.0833 B(  6-C , 10-H ) :  -0.0552 
B(  6-C , 12-H ) :   0.7579 B(  6-C , 13-H ) :   0.7381 B(  7-C , 11-H ) :  -0.1066 
B(  8-C , 16-H ) :   0.7566 B(  8-C , 17-H ) :   0.7677 B(  8-C , 18-H ) :   0.7522 
B(  9-H , 10-H ) :  -0.0652 B( 12-H , 13-H ) :  -0.0511 B( 14-H , 15-H ) :  -0.0635 
B( 16-H , 17-H ) :  -0.0541 B( 16-H , 18-H ) :  -0.0777 


                     *******************************
                     * LOEWDIN POPULATION ANALYSIS *
                     *******************************

----------------------
LOEWDIN ATOMIC CHARGES
----------------------
   0 S :    0.113340
   1 O :   -0.153168
   2 O :   -0.227418
   3 N :   -0.255196
   4 C :   -0.118841
   5 C :   -0.043656
   6 C :   -0.218486
   7 C :    0.139537
   8 C :   -0.298314
   9 H :    0.068285
  10 H :    0.085168
  11 H :    0.069634
  12 H :    0.087109
  13 H :    0.076177
  14 H :    0.128276
  15 H :    0.123643
  16 H :    0.070520
  17 H :    0.091413
  18 H :    0.075811
  19 H :    0.186167

-------------------------------
LOEWDIN REDUCED ORBITAL CHARGES
-------------------------------
  0 S s       :     5.636864  s :     5.636864
      pz      :     3.475167  p :    10.173961
      px      :     3.317370
      py      :     3.381423
      dz2     :     0.014803  d :     0.075836
      dxz     :     0.019533
      dyz     :     0.008172
      dx2y2   :     0.010301
      dxy     :     0.023027

  1 O s       :     3.477482  s :     3.477482
      pz      :     1.710611  p :     4.626439
      px      :     1.626848
      py      :     1.288980
      dz2     :     0.006168  d :     0.049247
      dxz     :     0.004537
      dyz     :     0.011061
      dx2y2   :     0.009784
      dxy     :     0.017697

  2 O s       :     3.562827  s :     3.562827
      pz      :     1.410304  p :     4.608945
      px      :     1.450792
      py      :     1.747849
      dz2     :     0.008603  d :     0.055646
      dxz     :     0.018785
      dyz     :     0.003827
      dx2y2   :     0.014262
      dxy     :     0.010169

  3 N s       :     3.218891  s :     3.218891
      pz      :     1.521787  p :     3.977585
      px      :     1.292204
      py      :     1.163594
      dz2     :     0.010812  d :     0.058720
      dxz     :     0.012613
      dyz     :     0.005802
      dx2y2   :     0.008387
      dxy     :     0.021108

  4 C s       :     2.901663  s :     2.901663
      pz      :     1.054086  p :     3.135305
      px      :     1.030492
      py      :     1.050727
      dz2     :     0.017942  d :     0.081873
      dxz     :     0.022689
      dyz     :     0.006950
      dx2y2   :     0.010685
      dxy     :     0.023607

  5 C s       :     2.878538  s :     2.878538
      pz      :     1.066557  p :     3.038563
      px      :     1.014819
      py      :     0.957187
      dz2     :     0.020915  d :     0.126555
      dxz     :     0.026730
      dyz     :     0.021975
      dx2y2   :     0.016841
      dxy     :     0.040094

  6 C s       :     2.945168  s :     2.945168
      pz      :     1.047938  p :     3.192355
      px      :     1.060447
      py      :     1.083969
      dz2     :     0.018028  d :     0.080963
      dxz     :     0.021653
      dyz     :     0.007496
      dx2y2   :     0.010465
      dxy     :     0.023322

  7 C s       :     2.856014  s :     2.856014
      pz      :     0.832710  p :     2.719187
      px      :     0.971787
      py      :     0.914690
      dz2     :     0.033916  d :     0.285262
      dxz     :     0.039578
      dyz     :     0.052752
      dx2y2   :     0.066199
      dxy     :     0.092818

  8 C s       :     2.967792  s :     2.967792
      pz      :     1.121064  p :     3.267654
      px      :     1.084357
      py      :     1.062233
      dz2     :     0.012584  d :     0.062868
      dxz     :     0.015652
      dyz     :     0.006052
      dx2y2   :     0.010979
      dxy     :     0.017600

  9 H s       :     0.892900  s :     0.892900
      pz      :     0.007479  p :     0.038815
      px      :     0.012310
      py      :     0.019026

 10 H s       :     0.875170  s :     0.875170
      pz      :     0.020678  p :     0.039661
      px      :     0.011505
      py      :     0.007478

 11 H s       :     0.888422  s :     0.888422
      pz      :     0.020267  p :     0.041944
      px      :     0.013080
      py      :     0.008597

 12 H s       :     0.871777  s :     0.871777
      pz      :     0.007270  p :     0.041114
      px      :     0.012753
      py      :     0.021091

 13 H s       :     0.883403  s :     0.883403
      pz      :     0.020471  p :     0.040420
      px      :     0.012594
      py      :     0.007355

 14 H s       :     0.794965  s :     0.794965
      pz      :     0.037523  p :     0.076758
      px      :     0.027420
      py      :     0.011815

 15 H s       :     0.799053  s :     0.799053
      pz      :     0.020689  p :     0.077305
      px      :     0.028310
      py      :     0.028306

 16 H s       :     0.888856  s :     0.888856
      pz      :     0.008258  p :     0.040624
      px      :     0.011519
      py      :     0.020846

 17 H s       :     0.868405  s :     0.868405
      pz      :     0.015766  p :     0.040182
      px      :     0.017517
      py      :     0.006899

 18 H s       :     0.883828  s :     0.883828
      pz      :     0.022800  p :     0.040361
      px      :     0.010671
      py      :     0.006889

 19 H s       :     0.699978  s :     0.699978
      pz      :     0.029067  p :     0.113854
      px      :     0.044903
      py      :     0.039885


---------------------------------
LOEWDIN BOND ORDERS (THRESH 0.050000)
---------------------------------
B(  0-S ,  4-C ) :   0.0550 B(  0-S ,  6-C ) :   1.1284 B(  0-S ,  8-C ) :   1.1585 
B(  1-O ,  2-O ) :   0.2061 B(  1-O ,  5-C ) :   0.0647 B(  1-O ,  7-C ) :   1.3832 
B(  1-O , 19-H ) :   0.9856 B(  2-O ,  5-C ) :   0.0850 B(  2-O ,  7-C ) :   2.2249 
B(  3-N ,  4-C ) :   0.0538 B(  3-N ,  5-C ) :   1.1412 B(  3-N ,  7-C ) :   0.0550 
B(  3-N , 14-H ) :   0.9864 B(  3-N , 15-H ) :   0.9857 B(  4-C ,  5-C ) :   1.0098 
B(  4-C ,  6-C ) :   1.0689 B(  4-C ,  7-C ) :   0.0544 B(  4-C ,  9-H ) :   0.9239 
B(  4-C , 10-H ) :   0.9232 B(  5-C ,  7-C ) :   0.9823 B(  5-C , 11-H ) :   0.8964 
B(  6-C , 12-H ) :   0.9329 B(  6-C , 13-H ) :   0.9361 B(  7-C , 19-H ) :   0.0566 
B(  8-C , 16-H ) :   0.9647 B(  8-C , 17-H ) :   0.9609 B(  8-C , 18-H ) :   0.9643 


------------------------------------------
LOEWDIN REDUCED ORBITAL POPULATIONS PER MO
-------------------------------------------
THRESHOLD FOR PRINTING IS 0.1%%
                      0         1         2         3         4         5   
                 -88.84735 -19.19227 -19.12844 -14.31426 -10.30887 -10.22060
                   2.00000   2.00000   2.00000   2.00000   2.00000   2.00000
                  --------  --------  --------  --------  --------  --------
 0 S  s             100.0       0.0       0.0       0.0       0.0       0.0
 1 O  s               0.0      99.9       0.0       0.0       0.0       0.0
 1 O  py              0.0       0.0       0.0       0.0       0.2       0.0
 2 O  s               0.0       0.0      99.8       0.0       0.1       0.0
 2 O  px              0.0       0.0       0.0       0.0       0.3       0.0
 2 O  dxz             0.0       0.0       0.0       0.0       0.1       0.0
 3 N  s               0.0       0.0       0.0      99.7       0.0       0.0
 3 N  py              0.0       0.0       0.0       0.0       0.0       0.1
 5 C  s               0.0       0.0       0.0       0.0       0.0      99.4
 7 C  s               0.0       0.0       0.0       0.0      98.9       0.0

                      6         7         8         9        10        11   
                 -10.20966 -10.20482 -10.19265  -7.92311  -5.88757  -5.88380
                   2.00000   2.00000   2.00000   2.00000   2.00000   2.00000
                  --------  --------  --------  --------  --------  --------
 0 S  s               0.0       0.0       0.0      99.6       0.0       0.0
 0 S  pz              0.0       0.0       0.0       0.0      21.2      38.5
 0 S  px              0.0       0.0       0.0       0.0      60.5       0.4
 0 S  py              0.0       0.0       0.0       0.0      18.3      61.1
 4 C  s               0.0       0.0      99.5       0.0       0.0       0.0
 6 C  s              99.6       0.0       0.0       0.0       0.0       0.0
 6 C  pz              0.0       0.0       0.0       0.1       0.0       0.0
 8 C  s               0.0      99.6       0.0       0.0       0.0       0.0
 8 C  py              0.0       0.0       0.0       0.1       0.0       0.0

                     12        13        14        15        16        17   
                  -5.87701  -1.10137  -1.00497  -0.89308  -0.81014  -0.75540
                   2.00000   2.00000   2.00000   2.00000   2.00000   2.00000
                  --------  --------  --------  --------  --------  --------
 0 S  s               0.0       0.0       0.0       0.2      21.6      14.1
 0 S  pz             40.3       0.0       0.0       0.0       1.4       0.1
 0 S  px             39.1       0.0       0.0       0.1       0.2       1.6
 0 S  py             20.6       0.0       0.0       0.0       1.4       1.3
 0 S  dxz             0.0       0.0       0.0       0.0       0.1       0.0
 0 S  dxy             0.0       0.0       0.0       0.0       0.0       0.1
 1 O  s               0.0      42.3      18.0       0.1       0.1       0.2
 1 O  pz              0.0       0.8       0.1       0.0       0.0       0.0
 1 O  px              0.0       1.3       0.2       0.1       0.0       0.2
 1 O  py              0.0       1.0       0.2       0.1       0.1       1.0
 2 O  s               0.0      13.1      41.8       1.0       0.0       0.3
 2 O  pz              0.0       0.7       0.9       0.0       0.0       0.0
 2 O  px              0.0       1.8       2.6       0.0       0.0       0.1
 2 O  py              0.0       0.2       0.0       0.0       0.0       0.0
 2 O  dxz             0.0       0.1       0.1       0.0       0.0       0.0
 3 N  s               0.0       0.1       0.2      38.1       3.8       4.8
 3 N  pz              0.0       0.0       0.0       0.6       0.3       0.8
 3 N  px              0.0       0.0       0.0       1.0       0.0       0.2
 3 N  py              0.0       0.1       0.1       1.0       0.1       0.9
 4 C  s               0.0       0.1       0.0       3.7      11.2      11.5
 4 C  pz              0.0       0.0       0.0       1.0       0.0       0.1
 4 C  px              0.0       0.1       0.0       0.7       1.0       0.3
 4 C  py              0.0       0.0       0.0       0.0       1.7       0.2
 5 C  s               0.0       0.9       0.3      16.9       0.6       4.9
 5 C  pz              0.0       0.1       0.1       0.0       1.2       1.7
 5 C  px              0.0       0.6       0.4       0.7       1.8       1.3
 5 C  py              0.0       0.9       0.0       4.3       1.0       2.1
 5 C  dxy             0.0       0.0       0.0       0.1       0.0       0.1
 6 C  s               0.0       0.0       0.0       0.7      21.0       0.8
 6 C  pz              0.0       0.0       0.0       0.1       1.2       0.5
 6 C  px              0.0       0.0       0.0       0.1       0.1       3.4
 6 C  py              0.0       0.0       0.0       0.2       0.3       1.3
 7 C  s               0.0      19.1       4.4       0.4       0.1       1.2
 7 C  pz              0.0       0.0       6.0       0.5       0.0       0.1
 7 C  px              0.0       0.4      12.6       2.2       0.3       2.1
 7 C  py              0.0       4.8       5.9       1.9       0.1       0.7
 7 C  dz2             0.0       0.2       0.0       0.0       0.0       0.0
 7 C  dxz             0.0       0.4       0.7       0.0       0.0       0.0
 7 C  dyz             0.0       0.3       0.0       0.0       0.0       0.0
 7 C  dx2y2           0.0       0.1       1.4       0.0       0.0       0.0
 7 C  dxy             0.0       0.2       0.0       0.1       0.0       0.0
 8 C  s               0.0       0.0       0.0       0.0       7.2      17.9
 8 C  px              0.0       0.0       0.0       0.0       0.8       0.3
 8 C  py              0.0       0.0       0.0       0.0       1.0       0.8
 9 H  s               0.0       0.0       0.0       0.7       2.2       2.0
10 H  s               0.0       0.0       0.0       0.6       2.0       2.6
10 H  pz              0.0       0.0       0.0       0.0       0.1       0.1
11 H  s               0.0       0.2       0.0       2.5       0.2       1.0
12 H  s               0.0       0.0       0.0       0.1       4.0       0.2
12 H  py              0.0       0.0       0.0       0.0       0.2       0.0
13 H  s               0.0       0.0       0.0       0.1       4.0       0.1
13 H  pz              0.0       0.0       0.0       0.0       0.2       0.0
14 H  s               0.0       0.0       0.0       8.5       1.2       1.9
14 H  pz              0.0       0.0       0.0       0.5       0.1       0.1
14 H  px              0.0       0.0       0.0       0.4       0.1       0.1
15 H  s               0.0       0.0       0.0       8.9       1.0       1.6
15 H  px              0.0       0.0       0.0       0.4       0.1       0.1
15 H  py              0.0       0.0       0.0       0.6       0.1       0.1
16 H  s               0.0       0.0       0.0       0.0       1.4       3.6
16 H  py              0.0       0.0       0.0       0.0       0.1       0.2
17 H  s               0.0       0.0       0.0       0.0       1.3       4.0
17 H  pz              0.0       0.0       0.0       0.0       0.0       0.1
17 H  px              0.0       0.0       0.0       0.0       0.0       0.1
18 H  s               0.0       0.0       0.0       0.0       1.4       3.8
18 H  pz              0.0       0.0       0.0       0.0       0.1       0.2
19 H  s               0.0       8.5       3.2       0.1       0.1       0.4
19 H  pz              0.0       0.1       0.1       0.0       0.0       0.0
19 H  px              0.0       0.6       0.3       0.0       0.0       0.0
19 H  py              0.0       0.8       0.4       0.0       0.0       0.0

                     18        19        20        21        22        23   
                  -0.70341  -0.65638  -0.59876  -0.56412  -0.50653  -0.48498
                   2.00000   2.00000   2.00000   2.00000   2.00000   2.00000
                  --------  --------  --------  --------  --------  --------
 0 S  s               0.0       8.5      17.1       7.2       1.4       0.0
 0 S  pz              1.2       0.7       0.5       0.9       0.2       0.0
 0 S  px              2.2       1.6       0.0       0.2       1.2       0.0
 0 S  py              0.6       1.1       0.5       0.1       0.1       0.9
 0 S  dxy             0.1       0.0       0.0       0.0       0.0       0.0
 1 O  s               0.5       0.3       0.2       0.2       0.0       0.2
 1 O  pz              0.0       0.0       0.1       0.3       0.2       6.2
 1 O  px              0.7       0.7       0.5       0.1       0.2       0.1
 1 O  py              7.2       9.3      15.3      17.7       1.7       0.0
 1 O  dyz             0.0       0.0       0.1       0.1       0.0       0.1
 1 O  dx2y2           0.1       0.1       0.1       0.0       0.0       0.0
 1 O  dxy             0.0       0.1       0.2       0.2       0.0       0.0
 2 O  s               1.1       0.6       0.3       0.0       3.8       0.6
 2 O  pz              0.1       0.2       0.1       0.0       0.8       0.8
 2 O  px              0.5       0.3       0.2       0.0       5.7       3.1
 2 O  py              0.1       0.0       0.2       1.3       1.4       0.6
 3 N  s               3.2       0.0       0.8       0.3       0.3       0.2
 3 N  pz              0.6       0.2       1.0       0.1       0.1       6.2
 3 N  px              0.1       0.5       1.0       0.2       8.8      11.6
 3 N  py              2.4       0.1       2.3       5.6       1.7       2.7
 4 C  s               0.5      11.3       0.0       3.9       0.7       0.6
 4 C  pz              1.6       0.1       3.4       0.2       9.7       0.2
 4 C  px              3.2       0.1       1.7       0.1       1.6      10.0
 4 C  py              0.4       2.6       1.3       4.4       0.0       0.6
 5 C  s               8.5       0.1       4.3       4.1       1.3       0.0
 5 C  pz              0.0       2.0       0.0       1.2       8.9       8.8
 5 C  px              0.3       3.4       1.0       1.6      15.7       0.2
 5 C  py              4.5       2.7       0.5       0.3       0.2       1.3
 5 C  dx2y2           0.0       0.0       0.0       0.0       0.0       0.1
 5 C  dxy             0.2       0.0       0.0       0.0       0.0       0.0
 6 C  s              11.3       3.1       4.3       4.3       0.3       0.0
 6 C  pz              0.2       0.5       5.2       2.5       0.5       0.0
 6 C  px              0.0       2.4       1.1       0.0       0.0       1.1
 6 C  py              0.0       4.6       0.1       2.4       0.3       9.3
 7 C  s               5.4       3.4       1.6       0.4       1.9       0.2
 7 C  pz              1.2       1.3       0.4       0.1       0.4       6.9
 7 C  px              5.3       1.8       0.3       0.1       0.3       1.2
 7 C  py              1.7       0.1       2.5       8.1       5.0       0.6
 7 C  dyz             0.0       0.0       0.0       0.1       0.0       0.0
 7 C  dxy             0.0       0.0       0.1       0.2       0.0       0.0
 8 C  s               9.9       7.8       3.8       1.2       0.0       0.1
 8 C  pz              0.0       0.0       0.0       0.0       0.0       0.2
 8 C  px              0.1       0.7       1.9       1.4       0.0       1.1
 8 C  py              0.0       1.4       3.7       2.1       1.4       0.0
 8 C  dxy             0.0       0.0       0.1       0.1       0.0       0.0
 9 H  s               0.2       5.2       0.0       4.5       0.1       3.1
 9 H  px              0.0       0.1       0.0       0.1       0.0       0.0
 9 H  py              0.0       0.2       0.0       0.1       0.0       0.1
10 H  s               0.2       4.0       0.1       2.0       5.7       0.0
10 H  pz              0.0       0.2       0.0       0.1       0.1       0.0
11 H  s               2.5       0.2       1.7       1.6      10.3       2.6
11 H  pz              0.1       0.0       0.1       0.0       0.3       0.0
12 H  s               2.8       1.7       2.2       4.2       0.2       4.6
12 H  py              0.1       0.0       0.1       0.1       0.0       0.1
13 H  s               3.2       0.9       3.1       2.8       0.0       0.2
13 H  pz              0.1       0.0       0.1       0.1       0.0       0.0
14 H  s               1.4       0.2       1.4       0.0       2.1       6.8
14 H  pz              0.1       0.0       0.1       0.0       0.1       0.2
15 H  s               1.9       0.1       0.6       2.3       2.5       4.5
15 H  pz              0.0       0.0       0.0       0.0       0.0       0.1
15 H  px              0.1       0.0       0.1       0.1       0.0       0.0
15 H  py              0.1       0.0       0.0       0.0       0.1       0.1
16 H  s               2.6       3.1       2.1       0.7       0.5       0.1
16 H  py              0.1       0.1       0.1       0.0       0.0       0.0
17 H  s               2.9       2.9       1.9       0.8       0.0       0.6
18 H  s               2.4       2.6       2.4       1.2       0.1       0.0
18 H  pz              0.1       0.1       0.1       0.1       0.0       0.0
19 H  s               2.4       3.0       4.4       4.5       0.6       0.0
19 H  px              0.1       0.2       0.2       0.2       0.0       0.0

                     24        25        26        27        28        29   
                  -0.47709  -0.46120  -0.44069  -0.42891  -0.42842  -0.41630
                   2.00000   2.00000   2.00000   2.00000   2.00000   2.00000
                  --------  --------  --------  --------  --------  --------
 0 S  s               0.3       0.0       0.5       0.0       0.0       0.0
 0 S  pz              1.4       0.6       2.5       2.5       0.1       1.6
 0 S  px              0.1       0.8       2.7       0.3       5.1       2.1
 0 S  py              0.2       0.1       1.2       0.0       0.0       2.3
 0 S  dx2y2           0.0       0.0       0.0       0.0       0.0       0.1
 1 O  s               2.6       3.9       0.6       0.5       0.0       0.1
 1 O  pz              0.7       9.1       0.0      14.8       0.5      11.1
 1 O  px             17.9       9.6       5.8       0.0       0.0       1.7
 1 O  py              0.7       0.8       1.8       0.5       1.6       0.2
 2 O  s               5.8       4.6       0.5       1.1       0.3       0.2
 2 O  pz              7.4       1.6       0.1       9.0       0.3       7.5
 2 O  px              5.2       8.5       5.0       1.6       1.9       0.4
 2 O  py              2.1       3.2       2.1       2.1       0.2       0.2
 2 O  dxz             0.2       0.1       0.0       0.1       0.0       0.1
[...]
  2 O      8.4206     8.0000    -0.4206     2.1028     2.1028    -0.0000
  3 N      7.5575     7.0000    -0.5575     2.8430     2.8430    -0.0000
  4 C      6.1757     6.0000    -0.1757     3.8657     3.8657    -0.0000
  5 C      6.0092     6.0000    -0.0092     3.8235     3.8235    -0.0000
  6 C      6.3318     6.0000    -0.3318     3.8633     3.8633    -0.0000
  7 C      5.4856     6.0000     0.5144     3.9579     3.9579    -0.0000
  8 C      6.4496     6.0000    -0.4496     3.8793     3.8793     0.0000
  9 H      0.9031     1.0000     0.0969     0.9585     0.9585    -0.0000
 10 H      0.8681     1.0000     0.1319     0.9530     0.9530     0.0000
 11 H      0.8781     1.0000     0.1219     0.9537     0.9537    -0.0000
 12 H      0.8587     1.0000     0.1413     0.9557     0.9557     0.0000
 13 H      0.8716     1.0000     0.1284     0.9414     0.9414    -0.0000
 14 H      0.7614     1.0000     0.2386     0.9201     0.9201    -0.0000
 15 H      0.7687     1.0000     0.2313     0.9238     0.9238     0.0000
 16 H      0.8700     1.0000     0.1300     0.9426     0.9426    -0.0000
 17 H      0.8571     1.0000     0.1429     0.9490     0.9490    -0.0000
 18 H      0.8660     1.0000     0.1340     0.9434     0.9434    -0.0000
 19 H      0.6768     1.0000     0.3232     0.9139     0.9139    -0.0000

  Mayer bond orders larger than 0.100000
B(  0-S ,  6-C ) :   0.9842 B(  0-S ,  8-C ) :   0.9897 B(  1-O ,  7-C ) :   1.0698 
B(  1-O , 19-H ) :   0.8517 B(  2-O ,  7-C ) :   1.9467 B(  3-N ,  5-C ) :   1.0000 
B(  3-N , 14-H ) :   0.9100 B(  3-N , 15-H ) :   0.9080 B(  4-C ,  5-C ) :   0.9779 
B(  4-C ,  6-C ) :   0.9833 B(  4-C ,  9-H ) :   0.9474 B(  4-C , 10-H ) :   0.9388 
B(  5-C ,  7-C ) :   0.9169 B(  5-C , 11-H ) :   0.9229 B(  6-C , 12-H ) :   0.9407 
B(  6-C , 13-H ) :   0.9430 B(  8-C , 16-H ) :   0.9518 B(  8-C , 17-H ) :   0.9576 
B(  8-C , 18-H ) :   0.9529 

-------
TIMINGS
-------

Total SCF time: 0 days 0 hours 0 min 39 sec 

Total time                  ....      39.054 sec
Sum of individual times     ....      37.228 sec  ( 95.3%)

SCF preparation             ....       0.354 sec  (  0.9%)
Fock matrix formation       ....      36.477 sec  ( 93.4%)
  Startup                   ....       0.005 sec  (  0.0% of F)
  Split-RI-J                ....       3.124 sec  (  8.6% of F)
  Chain of spheres X        ....      28.816 sec  ( 79.0% of F)
  XC integration            ....       6.251 sec  ( 17.1% of F)
    Basis function eval.    ....       2.448 sec  ( 39.2% of XC)
    Density eval.           ....       1.258 sec  ( 20.1% of XC)
    XC-Functional eval.     ....       0.391 sec  (  6.3% of XC)
    XC-Potential eval.      ....       1.732 sec  ( 27.7% of XC)
Diagonalization             ....       0.000 sec  (  0.0%)
Density matrix formation    ....       0.028 sec  (  0.1%)
Total Energy calculation    ....       0.014 sec  (  0.0%)
Population analysis         ....       0.155 sec  (  0.4%)
Orbital Transformation      ....       0.021 sec  (  0.1%)
Orbital Orthonormalization  ....       0.000 sec  (  0.0%)
DIIS solution               ....       0.105 sec  (  0.3%)
  MO trafo                  ....       0.000 sec  (  0.0 % of DIIS)
  Orb grad                  ....       0.000 sec  (  0.0 % of DIIS)
  Energy W gradient         ....       0.000 sec  (  0.0 % of DIIS)
  DIIS error                ....       0.023 sec  ( 21.9 % of DIIS)
  DIIS work                 ....       0.068 sec  ( 64.1 % of DIIS)
  Form Q                    ....       0.000 sec  (  0.0 % of DIIS)
  Form QpQm                 ....       0.000 sec  (  0.0 % of DIIS)
  Exp/Cayley                ....       0.000 sec  (  0.0 % of DIIS)
  Orb update                ....       0.000 sec  (  0.0 % of DIIS)
  Wake-sleep                ....       0.004 sec  (  4.0 % of DIIS)
SOSCF solution              ....       0.075 sec  (  0.2%)
  MO trafo                  ....       0.025 sec  ( 33.3 % of SOSCF)
  Orb grad                  ....       0.003 sec  (  3.8 % of SOSCF)
  Rot update                ....       0.010 sec  ( 13.3 % of SOSCF)
  Step                      ....       0.033 sec  ( 43.8 % of SOSCF)
Finished LeanSCF after  39.1 sec

Maximum memory used throughout the entire LEANSCF-calculation: 20.8 MB


-------------------------------------------------------------------------------
                          DFT DISPERSION CORRECTION                            
                                                                               
                              DFTD3 V3.1  Rev 1                                
                          USING Becke-Johnson damping                          
-------------------------------------------------------------------------------
The B3LYP functional is recognized
Active option DFTDOPT                   ...         4   

molecular C6(AA) [au] = 3986.583887 


            DFT-D V3
 parameters
 s6 scaling factor         :     1.0000 
 a1 scaling factor         :     0.3981 
 s8 scaling factor         :     1.9889 
 a2 scaling factor         :     4.4211 
 ad hoc parameters k1-k3   :    16.0000     1.3333    -4.0000 

 Edisp/kcal,au: -21.014746220174  -0.033489126216 
 E6   /kcal   :  -9.951450201 
 E8   /kcal   : -11.063296020 
 % E8         :  52.645394352 

-------------------------   ----------------
Dispersion correction           -0.033489126
-------------------------   ----------------


-------------------------   --------------------
FINAL SINGLE POINT ENERGY      -800.290949700650
-------------------------   --------------------



           ************************************************************
           *        Program running with 2 parallel MPI-processes     *
           *              working on a common directory               *
           ************************************************************
------------------------------------------------------------------------------
                            ORCA SCF RESPONSE CALCULATION
------------------------------------------------------------------------------

GBWName                                 ... /kaggle/working/Met-2/Met_InterFrag.gbw
Number of atoms                         ...     20
Number of basis functions               ...    185
Max core memory                         ...   3000 MB

Electric field perturbation             ... YES
Quadrupolar field perturbation          ...  NO
Magnetic field perturbation (no GIAO)   ...  NO
Magnetic field perturbation (with GIAO) ...  NO
Linear momentum (velocity) perturbation ...  NO
Spin-orbit coupling perturbation        ...  NO
Choice of electric origin               ... Center of mass
Position of electric origin             ...     0.443719     0.151972     0.126859
Choice of magnetic origin               ... GIAO
Position of magnetic origin             ...     0.000000     0.000000     0.000000
Nuclear geometric perturbations         ...  NO (  60 perturbations)
Nucleus-orbit perturbations             ...  NO (   0 perturbations)
Spin-dipole/Fermi contact perturbations ...  NO (   0 perturbations)

Total number of real perturbations      ...      3
Total number of imaginary perturbations ...      0
Total number of triplet perturbations   ...      0
Total number of SOC perturbations       ...      0

Using XC Grid                  ... (/kaggle/working/Met-2/Met_InterFrag.grid_cpscf.tmp) 
Recalculating density on grid  ... (/kaggle/working/Met-2/Met_InterFrag.grho_cpscf0.tmp) done
Calculating the xc-kernel      ... (/kaggle/working/Met-2/Met_InterFrag.fxc_cpscf0.tmp) done

                                **********************
                                * REAL PERTURBATIONS *
                                **********************



-------------------
SHARK CP-SCF DRIVER
-------------------

Dimension of the orbital basis          ...    185
Dimension of the CPSCF-problem          ...   5800
Number of operators                     ...      1
Max. number of iterations               ...    128
Convergence Tolerance                   ... 1.0e-04
Number of perturbations                 ...      3
Perturbation type                       ... REAL

----------------------------
POPLE LINEAR EQUATION SOLVER
----------------------------

  ITERATION   0:   ||err||_max =   9.2558e+00 (   1.8 sec   0/  3 done)
  ITERATION   1:   ||err||_max =   1.2237e+00 (   1.6 sec   0/  3 done)
  ITERATION   2:   ||err||_max =   3.5039e-01 (   1.7 sec   0/  3 done)
  ITERATION   3:   ||err||_max =   8.4185e-02 (   1.6 sec   0/  3 done)
  ITERATION   4:   ||err||_max =   2.6600e-02 (   1.7 sec   0/  3 done)
  ITERATION   5:   ||err||_max =   7.2979e-03 (   1.6 sec   0/  3 done)
  ITERATION   6:   ||err||_max =   2.3065e-03 (   1.6 sec   0/  3 done)
  ITERATION   7:   ||err||_max =   5.7003e-04 (   1.7 sec   0/  3 done)
  ITERATION   8:   ||err||_max =   1.6684e-04 (   1.7 sec   0/  3 done)
  ITERATION   9:   ||err||_max =   5.7226e-05 (   1.7 sec   3/  3 done)

CP-SCF equations solved in  16.6 sec
Response densities calculated in   0.0 sec

Maximum memory used throughout the entire SCFRESP-calculation: 22.7 MB


           ************************************************************
           *        Program running with 2 parallel MPI-processes     *
           *              working on a common directory               *
           ************************************************************

------------------------------------------------------------------------------
                              ORCA PROPERTY CALCULATIONS
------------------------------------------------------------------------------

GBWName                                 ... /kaggle/working/Met-2/Met_InterFrag.gbw
Number of atoms                         ...     20
Number of basis functions               ...    185
Max core memory                         ...   3000 MB

Electric properties:
Dipole moment                           ... YES
Quadrupole moment                       ...  NO
Static polarizability (Dipole/Dipole)   ... YES
Static polarizability (Dipole/Quad.)    ...  NO
Static polarizability (Quad./Quad.)     ...  NO
Static polarizability (Velocity)        ...  NO
Static hyperpolarizability              ...  NO

Atomic electric properties:
Dipole moment                           ...  NO
Quadrupole moment                       ...  NO
Static polarizability                   ...  NO

Choice of electric origin               ... Center of mass
Position of electric origin             ...     0.443719     0.151972     0.126859

General magnetic properties:
Magnetizability                         ...  NO

EPR properties:
g-Tensor (aka g-matrix)                 ...  NO
Zero-Field splitting spin-orbit         ...  NO
Zero-field splitting spin-spin          ...  NO
Hyperfine couplings                     ...  NO (   0 nuclei)
Quadrupole couplings                    ...  NO (   0 nuclei)
Contact density                         ...  NO (   0 nuclei)

NMR properties:
Chemical shifts                         ...  NO (   0 nuclei)
Spin-rotation constants                 ...  NO (   0 nuclei)
Spin-spin couplings                     ...  NO (   0 nuclei,    0 pairs)

Choice of magnetic origin               ... GIAO
Position of magnetic origin             ...     0.000000     0.000000     0.000000

Properties with geometric perturbations:
SCF Hessian                             ...  NO
IR spectrum                             ...  NO
VCD spectrum                            ...  NO
X-ray spectroscopy properties:
SCF XES/XAS/RIXS spectra                ...  NO

SCF SOC stabilization energy            ...  NO
Diagonal Born-Oppenheimer correction    ...  NO

-------------
DIPOLE MOMENT
-------------

Method             : SCF
Type of density    : Electron Density
Multiplicity       :   1
Irrep              :   0
Energy             :  -800.2574605744339351 Eh
Basis              : AO
                                X                 Y                 Z
Electronic contribution:     -5.700967938       6.356707528       1.318099266
Nuclear contribution   :      6.472404435      -6.614026170      -0.990983813
                        -----------------------------------------
Total Dipole Moment    :      0.771436497      -0.257318642       0.327115453
                        -----------------------------------------
Magnitude (a.u.)       :      0.876545306
Magnitude (Debye)      :      2.228001105



--------------------
Rotational spectrum 
--------------------
 
Rotational constants in cm-1:             0.077353             0.025580             0.021921 
Rotational constants in MHz :          2318.977331           766.872683           657.181715 

Dipole components along the rotational axes: 
x,y,z [a.u.] :    -0.776353    -0.293454     0.281944 
x,y,z [Debye]:    -1.973332    -0.745901     0.716645 

 

Dipole moment calculation done in   0.0 sec 


---------------------------------------------------
STATIC POLARIZABILITY TENSOR (Dipole/Dipole)
---------------------------------------------------

Method             : SCF
Type of density    : Electron Density
Type of derivative : Electric Field (Direction=X)
Multiplicity       :   1
Irrep              :   0
Basis              : AO

The raw cartesian tensor (atomic units):
      95.325725997        -2.194063493         6.604741762  
      -2.194063493        80.522638470         0.169948964  
       6.604741762         0.169948964        67.840947041  
diagonalized tensor: 
      66.305866537        80.286276385        97.097168587  

Orientation: 
      -0.225011402         0.112423854        -0.967848514  
      -0.046360213         0.990960787         0.125886650  
       0.973252588         0.073195595        -0.217765482  

Isotropic polarizability :  81.22977


Polarizability tensor calculation done in   0.0 sec 

Maximum memory used throughout the entire PROP-calculation: 10.7 MB

--------------------------------
SUGGESTED CITATIONS FOR THIS RUN
--------------------------------

Below you find a list of papers that are relevant to this ORCA run
We neither can nor want to force you to cite these papers, but we appreciate if you do
You receive ORCA, which is the product of decades of hard work by many enthusiastic individuals, for free
The only thing we kindly ask in return is that you cite our papers,
We deeply appreciate it, if you show your appreciation for ORCA by not just citing the generic ORCA reference.

Please note that relegating all ORCA citations to the supporting information does *not* help us.
SI sections are not indexed - citations you put there will not count into any citation statistics
But we need these citations in order to attract the funding resources that allow us to do what we are doing

Therefore, if you are a happy ORCA user, please consider citing a few of the papers listed below in the main body of your paper

In addition to the list printed below, the program has created the file /kaggle/working/Met-2/Met_InterFrag.bibtex that contains the list in bibtex format
You can import this file easily into all common literature databanks and citation aid programs

It goes without saying that in many instances, there are alternative algorithms to achieve similar
results as the ones you have gotten from ORCA. It is, of course, also the case that in some instances
ORCA just re-implements algorithms worked out by others. We are fully aware of that and we are also
fully appreciative of our colleagues work. Hence this citation list should not be read as indicating
that the listed papers, which are focused on our own work, are the only ones worth citing. It simply
meant to make it easier for users to cite ORCA specific papers. It is not a substitute for doing your
own literature research and citing the relevant literature in a scientifically appropriate manner.

List of essential papers. We consider these as the minimum necessary citations

  1. Neese, F.
     Software update: the ORCA program system, version 6.0
     WIRES Comput. Molec. Sci. 2025 15(1), e70019
     doi.org/10.1002/wcms.70019

List of papers to cite with high priority. The work reported in these papers was absolutely
necessary for this run to complete.
Our perspective: the developers of density functionals and basis sets usually get cited in chemistry papers
Good! But without the algorithms to do something with them, the functionals or basis sets would not do anything.
Hence, in our opinion, the algorithm design and method developments papers are equally worthy of getting cited

  1. Neese, F.
     An improvement of the resolution of the identity approximation for the formation of the Coulomb matrix
     J. Comp. Chem. 2003 24(14), 1740-1747
     doi.org/10.1002/jcc.10318
  2. Neese, F.; Wennmohs, F.; Hansen, A.; Becker, U.
     Efficient, approximate and parallel Hartree-Fock and hybrid DFT calculations. A 'chain-of-spheres' algorithm for the Hartree-Fock exchange
     Chem. Phys. 2009 356(1-3), 98-109
     doi.org/10.1016/j.chemphys.2008.10.036
  3. Grimme, S.; Antony, J.; Ehrlich, S.; Krieg, H.
     A consistent and accurate ab initio parametrization of density functional dispersion correction (DFT-D) for the 94 elements H-Pu
     J. Chem. Phys. 2010 132 , 154104
     doi.org/10.1063/1.3382344
  4. Grimme, S.; Ehrlich, S.; Goerigk, L.
     Effect of the damping function in dispersion corrected density functional theory
     J. Comput. Chem. 2011 32(7), 1456-1465
     doi.org/10.1002/jcc.21759
  5. Helmich-Paris, B.; de Souza, B.; Neese, F.; Izsák, R.
     An improved chain of spheres for exchange algorithm
     J. Chem. Phys. 2021 155(10), 104109
     doi.org/10.1063/5.0058766
  6. Neese, F.
     The SHARK Integral Generation and Digestion System
     J. Comp. Chem. 2022 44(3), 381
     doi.org/10.1002/jcc.26942

List of suggested additional citations. These are papers that are important in the 'surrounding' of 
of this run, or papers that preceded the highly important papers. If you like your results we are grateful for a citation.

  1. Izsak, R.; Neese, F.
     An overlap fitted chain of spheres exchange method
     J. Chem. Phys. 2011 135 , 144105
     doi.org/10.1063/1.3646921
  2. Izsak, R.; Hansen, A.; Neese, F.
     The resolution of identity and chain of spheres approximations for the LPNO-CCSD singles Fock term
     Molec. Phys. 2012 110 , 2413-2417
     doi.org/10.1080/00268976.2012.687466
  3. Neese, F.
     The ORCA program system
     WIRES Comput. Molec. Sci. 2012 2(1), 73-78
     doi.org/10.1002/wcms.81
  4. Izsak, R.; Neese, F.; Klopper, W.
     Robust fitting techniques in the chain of spheres approximation to the Fock exchange: The role of the complementary space
     J. Chem. Phys. 2013 139 , 
     doi.org/10.1063/1.4819264
  5. Neese, F.
     Software update: the ORCA program system, version 4.0
     WIRES Comput. Molec. Sci. 2018 8(1), 1-6
     doi.org/10.1002/wcms.1327
  6. Neese, F.; Wennmohs, F.; Becker, U.; Riplinger, C.
     The ORCA quantum chemistry program package
     J. Chem. Phys. 2020 152(22), 224108
     doi.org/10.1063/5.0004608
  7. Neese, F.
     Software update: The ORCA program system—Version 5.0
     WIRES Comput. Molec. Sci. 2022 12(1), e1606
     doi.org/10.1002/wcms.1606

List of optional additional citations

  1. Neese, F.
     Approximate second-order SCF convergence for spin unrestricted wavefunctions
     Chem. Phys. Lett. 2000 325(1-3), 93-98
     doi.org/10.1016/s0009-2614(00)00662-x

Timings for individual modules:

Sum of individual times          ...       59.981 sec (=   1.000 min)
Startup calculation              ...        2.215 sec (=   0.037 min)   3.7 %
SCF iterations                   ...       40.094 sec (=   0.668 min)  66.8 %
SCF Response                     ...       17.258 sec (=   0.288 min)  28.8 %
Property calculations            ...        0.413 sec (=   0.007 min)   0.7 %
                             ****ORCA TERMINATED NORMALLY****
TOTAL RUN TIME: 0 days 0 hours 1 minutes 0 seconds 466 msec
