
                                 *****************
                                 * O   R   C   A *
                                 *****************

                                            #,                                       
                                            ###                                      
                                            ####                                     
                                            #####                                    
                                            ######                                   
                                           ########,                                 
                                     ,,################,,,,,                         
                               ,,#################################,,                 
                          ,,##########################################,,             
                       ,#########################################, ''#####,          
                    ,#############################################,,   '####,        
                  ,##################################################,,,,####,       
                ,###########''''           ''''###############################       
              ,#####''   ,,,,##########,,,,          '''####'''          '####       
            ,##' ,,,,###########################,,,                        '##       
           ' ,,###''''                  '''############,,,                           
         ,,##''                                '''############,,,,        ,,,,,,###''
      ,#''                                            '''#######################'''  
     '                                                          ''''####''''         
             ,#######,   #######,   ,#######,      ##                                
            ,#'     '#,  ##    ##  ,#'     '#,    #''#        ,####,    ,#,          
            ##       ##  ##   ,#'  ##            #'  '#       #'       ,# #          
            ##       ##  #######   ##           ,######,      #####,      #          
            '#,     ,#'  ##    ##  '#,     ,#' ,#      #,     #,   #      #          
             '#######'   ##     ##  '#######'  #'      '#     '####' #    #          



                #########################################################
                #                        -***-                          #
                #          Department of theory and spectroscopy        #
                #                                                       #
                #                      Frank Neese                      #
                #                                                       #
                #     Directorship, Architecture, Infrastructure        #
                #                    SHARK, DRIVERS                     #
                #        Core code/Algorithms in most modules           #
                #                                                       #
                #        Max Planck Institute fuer Kohlenforschung      #
                #                Kaiser Wilhelm Platz 1                 #
                #                 D-45470 Muelheim/Ruhr                 #
                #                      Germany                          #
                #                                                       #
                #                  All rights reserved                  #
                #                        -***-                          #
                #########################################################


                         Program Version 6.1.1  -  RELEASE   -
                                (GIT: $487d211c$)
                          ($2025-11-21 10:33:24 +0100$)
                                                                         
                                  - NO-DMRG VERSION -                    
                                                                         


 With contributions from (in alphabetic order):
[Max-Planck-Institut fuer Kohlenforschung]                               
  Daniel Aravena         : Magnetic Suceptibility                        
  Michael Atanasov       : Ab Initio Ligand Field Theory (pilot matlab implementation)
  Alexander A. Auer      : GIAO ZORA, VPT2 properties, NMR spectrum      
  Ute Becker             : All parallelization in ORCA, NUMFREQ, NUMCALC 
  Giovanni Bistoni       : ED, misc. LED, open-shell LED, HFLD           
  Dmytro Bykov           : pre 5.0 version of the SCF Hessian            
  Marcos Casanova-Páez   : Triplet and SCS-CIS(D). UHF-(DLPNO)-IP/EA/STEOM-CCSD. UHF-CVS-IP/STEOM-CCSD   
  Vijay G. Chilkuri      : MRCI spin determinant printing, contributions to CSF-ICE 
  Pauline Colinet        : FMM embedding                                 
  Dipayan Datta          : RHF DLPNO-CCSD density                        
  Achintya Kumar Dutta   : EOM-CC, STEOM-CC                              
  Nicolas Foglia         : Exact transition moments, OPA infrastructure, MCD improvements    
  Dmitry Ganyushin       : Spin-Orbit,Spin-Spin,Magnetic field MRCI      
  Miquel Garcia-Rates    : C-PCM and meta-GGA Hessian, CCSD/C-PCM, Gaussian charge scheme 
  Tiago L. C. Gouveia    : GS-ROHF, GS-ROCIS                             
  Yang Guo               : DLPNO-NEVPT2, F12-NEVPT2, CIM, IAO-localization        
  Andreas Hansen         : Spin unrestricted coupled pair/coupled cluster methods 
  Ingolf Harden          : AUTO-CI MPn and infrastructure                
  Benjamin Helmich-Paris : MC-RPA, TRAH-(SCF,CASSCF), AVAS, COSX integrals, SCF dyn. polar., MC-PDFT, srDFT 
  Lee Huntington         : MR-EOM, pCC                                   
  Robert Izsak           : Overlap fitted RIJCOSX, COSX-SCS-MP3, EOM     
  Riya Kayal             : Wick's Theorem for AUTO-CI, AUTO-CI UHF-CCSDT 
  Emily Kempfer          : AUTO-CI RHF CISDT and CCSDT, approximate NEVPT4
  Christian Kollmar      : KDIIS, OOCD, Brueckner-CCSD(T), CCSD density, CASPT2, CASPT2-K, improved NEVPT2 
  Axel Koslowski         : Symmetry handling                             
  Simone Kossmann        : meta-GGA functionals, TD-DFT gradient, OOMP2, (MP2 Hessian; deprecated post 5.0) 
  Lucas Lang             : DCDCAS, Hyperfine gauge corrections, ICE-SOC+SSC
  Marvin Lechner         : AUTO-CI (C++ implementation), FIC-MRCC        
  Spencer Leger          : CASSCF response                               
  Dagmar Lenk            : GEPOL surface, SMD, ORCA-2-JSON               
  Dimitrios Liakos       : Extrapolation schemes; Compound Job, Property file
  Dimitrios Manganas     : Further ROCIS development; embedding schemes. LFT, Crystal Embedding 
  Dimitrios Pantazis     : SARC Basis sets                               
  Anastasios Papadopoulos: AUTO-CI, single reference methods and gradients 
  Taras Petrenko         : pre 6.0 DFT Hessian and TD-DFT gradient,  ECA, NRVS 
  Petra Pikulova         : Analytic Raman intensities                    
  Peter Pinski           : DLPNO-MP2, DLPNO-MP2 Gradient                 
  Shashank Vittal Rao    : ES-AILFT, MagRelax                            
  Christoph Reimann      : Effective Core Potentials                     
  Marius Retegan         : Local ZFS, SOC                                
  Christoph Riplinger    : Optimizer, TS searches, QM/MM, DLPNO-CCSD(T), (RO)-DLPNO pert. Triples 
  Michael Roemelt        : Original ROCIS implementation, recursive CI coupling coefficients
  Masaaki Saitow         : Open-shell DLPNO-CCSD energy and density      
  Barbara Sandhoefer     : DKH picture change effects                    
  Yorick L. A. Schmerwitz: GMF and freeze-and-release deltaSCF, NEB S-IDPP initial path                    
  Kantharuban Sivalingam : CASSCF convergence/infrastructure, NEVPT2, NEVPT3, NEVPT4(SD), FIC-MRCI and CEPA variants
  Bernardo de Souza      : ESD, SOC TD-DFT                               
  Georgi L. Stoychev     : AutoAux, RI-MP2 NMR, DLPNO-MP2 response, X2C  
  Van Anh Tran           : RI-MP2 g-tensors                              
  Willem Van den Heuvel  : Paramagnetic NMR                              
  Zikuan Wang            : NOTCH, Electric field optimization            
  Frank Wennmohs         : Technical directorship and infrastructure     
  Hang Xu                : AUTO-CI-Response properties                   
                                                                         
[FACCTs GmbH]                                                            
  Markus Bursch, Nicolas Foglia, Miquel Garcia-Rates, Ingolf Harden, Hagen Neugebauer, Anastasios Papadopoulos, 
  Christoph Riplinger, Bernardo de Souza, Georgi L. Stoychev                                                    
                                                                 
  APM, various basis sets, CI-OPT, improved COSX, DLPNO-Multilevel,           
  DOCKER, DRACO, updates on ESD, Fragmentator, GOAT, IRC, LR-CPCM, L-BFGS, MBIS, meta-GGA TD-DFT gradient, ML-optimized integration grids, 
  MM, NACMEs, nearIR, NEB, NEB-TS, NL-DFT gradient (VV10), 2- and 3-layer-ONIOM, interface openCOSMO-RS, QMMM,   
  Crystal-QMMM, RESP, rigid body optimization, SF, symmetry and pop. for TD-DFT, various functionals, SOLVATOR                                   
                                                                         
[Other institutions]                                                     
  V. Asgeirsson          : NEB                                           
  Christoph Bannwarth    : sTDA-DFT, sTD-DFT, PBEh-3c, B97-3c, D3        
  Giovanni Bistoni       : ETS/NOCV, ADLD/ADEX, COVALED                  
  Martin Brehm           : Molecular dynamics                            
  Ronald Cardenas        : ETS/NOCV                                      
  Martina Colucci        : COVALED                                       
  Sebastian Ehlert       : rSCAN, r2SCAN, r2SCAN-3c, D4, dhf basis sets  
  Marvin Friede          : D4 for Fr, Ra, Ac-Lr                          
  Lars Goerigk           : TD-DFT with DH, B97 family of functionals     
  Stefan Grimme          : VdW corrections, initial TS optimization, DFT functionals, gCP, sTDA/sTD-DF 
  Waldemar Hujo          : DFT-NL                                        
  H. Jonsson             : NEB                                           
  Holger Kruse           : gCP                                           
  Marcel Mueller         : wB97X-3c, vDZP basis set                      
  Hagen Neugebauer       : wr2SCAN, Native XTB                           
  Gianluca Regni         : ADLD/ADEX                                     
  Tobias Risthaus        : pre 6.0 range-separated hybrid DFT and stability analysis
  Lukas Wittmann         : regularized MP2, r2SCAN double-hybrids, wr2SCAN        
                                                                         
We gratefully acknowledge several colleagues who have allowed us to      
interface, adapt or use parts of their codes:                            
  Ed Valeev, F. Pavosevic, A. Kumar             : LibInt (2-el integral package), F12 methods 
  Garnet Chan, S. Sharma, J. Yang, R. Olivares  : DMRG                   
  Ulf Ekstrom                                   : XCFun DFT Library      
  Mihaly Kallay                                 : mrcc  (arbitrary order and MRCC methods)
  Frank Weinhold                                : gennbo (NPA and NBO analysis)           
  Simon Mueller                                 : openCOSMO-RS                            
  Christopher J. Cramer and Donald G. Truhlar   : smd solvation model                     
  S Lehtola, MJT Oliveira, MAL Marques          : LibXC Library                           
  Liviu Ungur et al                             : ANISO software                          


 Your calculation uses the libint2 library for the computation of 2-el integrals
 For citations please refer to: http://libint.valeyev.net

 Your ORCA version has been built with support for libXC version: 7.0.0
 For citations please refer to: https://libxc.gitlab.io

 This ORCA versions uses:
   CBLAS   interface :  Fast vector & matrix operations
   LAPACKE interface :  Fast linear algebra routines
   SCALAPACK package :  Parallel linear algebra routines
   Shared memory     :  Shared parallel matrices
   BLAS/LAPACK       :  OpenBLAS 0.3.29  USE64BITINT DYNAMIC_ARCH NO_AFFINITY SkylakeX SINGLE_THREADED
        Core in use  :  SkylakeX
   Copyright (c) 2011-2014, The OpenBLAS Project


  ***********************************
  * Starting time: Sun Mar 22 19:05:39 2026
  * Host name:     53ffe4931d9b
  * Process ID:    54
  * Working dir.:  /kaggle/working
  ***********************************

NOTE: MaxCore=3000 MB was set to SCF,MP2,MDCI,CIPSI,MRCI,RASCI and CIS
      => If you want to overwrite this, your respective input block should be placed after the MaxCore statement
Your calculation utilizes the atom-pairwise dispersion correction
with the Becke-Johnson damping scheme (D3BJ)


Your calculation utilizes the SMD solvation module
Please cite in your paper:
Marenich, A. V.; Cramer, C. J.; Truhlar, D. G. J. Phys. Chem. B 2009, 113, 6378 

Warning: RI is on but no J-basis has been assigned. Assigning Def2/J (nothing to worry about!)
================================================================================

----- Orbital basis set information -----
Your calculation utilizes the basis: 6-31G(d,p)
   H-He, Li-Ne : W. J. Hehre, R. Ditchfield and J.A. Pople, J. Chem. Phys. 56, 2257 (1972).
                 Note: He and Ne are unpublished basis sets taken from the Gaussian program.
                 Note: Li and B from J. D. Dill and J. A. Pople, J. Chem. Phys. 62, 2921 (1975).
   Na - Ar     : M. M. Francl, W. J. Pietro, W. J. Hehre, J. S. Binkley, M. S. Gordon, 
                 D. J. DeFrees and J. A. Pople, J. Chem. Phys. 77, 3654 (1982).
   K - Zn      : V. A. Rassolov, J. A. Pople, M. A. Ratner, and T. L. Windus, J. Chem. Phys. 109, 1223 (1998).

----- AuxJ basis set information -----
Your calculation utilizes the auxiliary basis: def2/J
   H-Rn: F. Weigend, Phys. Chem. Chem. Phys. 8, 1057 (2006).
   Fr-Lr: K. Eichkorn, F. Weigend, O. Treutler, R. Ahlrichs; Theor. Chem. Acc. 97, 119 (1997).

================================================================================
                                        WARNINGS
                       Please study these warnings very carefully!
================================================================================


WARNING: Geometry Optimization
  ===> : Switching off AutoStart
         For restart on a previous wavefunction, please use MOREAD

================================================================================
                                       INPUT FILE
================================================================================
NAME = /kaggle/working/Met-1/Met_InterFrag.inp
|  1> 
|  2> !RKS B3LYP 6-31G(d,p) TightSCF Opt D3BJ
|  3>  
|  4> %pal nprocs 2 end
|  5> %maxcore 3000
|  6> 
|  7> %cpcm
|  8>   smd true
|  9>   SMDsolvent "WATER"
| 10>   end
| 11> 
| 12> %scf
| 13>   MaxIter 1000
| 14>   SOSCF Start 0.00033
| 15>   end
| 16> end
| 17> 
| 18> %output
| 19>   PrintLevel Normal
| 20>   Print[ P_OrbEn ] 2        # print ALL orbital energies (not just up to LUMO+9) :contentReference[oaicite:10]{index=10}
| 21>   XYZFile true              # writes basename.xyz (handy for reuse) :contentReference[oaicite:11]{index=11}
| 22>   end
| 23> 
| 24> *xyz 0 1
| 25> S        2.285800000      0.970100000      0.279700000
| 26> O       -1.160700000      1.640200000      0.692100000
| 27> O       -2.590500000      0.369300000     -0.524000000
| 28> N       -1.362800000     -1.877500000      0.498600000
| 29> C        0.415600000     -0.811100000     -0.801300000
| 30> C       -0.566200000     -0.653300000      0.368600000
| 31> C        1.265600000      0.422300000     -1.120800000
| 32> C       -1.548600000      0.475400000      0.111000000
| 33> C        3.261700000     -0.535500000      0.496000000
| 34> H        1.059600000     -1.683200000     -0.635100000
| 35> H       -0.154000000     -1.043500000     -1.712800000
| 36> H       -0.051200000     -0.483900000      1.319400000
| 37> H        0.628200000      1.259100000     -1.423800000
| 38> H        1.923900000      0.209000000     -1.970000000
| 39> H       -1.963200000     -1.808200000      1.319700000
| 40> H       -0.744200000     -2.670100000      0.666900000
| 41> H        2.663800000     -1.325600000      0.956200000
| 42> H        4.099000000     -0.318300000      1.165300000
| 43> H        3.669000000     -0.879400000     -0.458300000
| 44> H       -1.805100000      2.361900000      0.530200000
| 45> *
| 46> 
| 47>                          ****END OF INPUT****
================================================================================

                       *****************************
                       * Geometry Optimization Run *
                       *****************************

Geometry optimization settings:
Update method            Update   .... BFGS
Choice of coordinates    CoordSys .... (2022) Redundant Internals
Initial Hessian          InHess   .... Almloef's Model
Max. no of cycles        MaxIter  .... 60

Convergence Tolerances:
Energy Change            TolE     ....  5.0000e-06 Eh
Max. Gradient            TolMAXG  ....  3.0000e-04 Eh/bohr
RMS Gradient             TolRMSG  ....  1.0000e-04 Eh/bohr
Max. Displacement        TolMAXD  ....  4.0000e-03 bohr
RMS Displacement         TolRMSD  ....  2.0000e-03 bohr
Strict Convergence                .... False

------------------------------------------------------------------------------
                        ORCA OPTIMIZATION COORDINATE SETUP
------------------------------------------------------------------------------

The optimization will be done in redundant internal coordinates (2022)
Making redundant internal coordinates   ...  (2022 redundants) done
Evaluating the initial hessian          ...  (Almloef) done
Evaluating the coordinates              ...  done
Calculating the B-matrix                .... done
Calculating the G-matrix                .... done
The number of degrees of freedom        ....   81

    -----------------------------------------------------------------
                    Redundant Internal Coordinates


    -----------------------------------------------------------------
         Definition                    Initial Value    Approx d2E/dq
    -----------------------------------------------------------------
      1. B(C   5,C   4)                  1.5354         0.366217   
      2. B(C   5,N   3)                  1.4663         0.422755   
      3. B(C   6,S   0)                  1.8172         0.350673   
      4. B(C   6,C   4)                  1.5316         0.371360   
      5. B(C   7,O   2)                  1.2248         1.026845   
      6. B(C   7,C   5)                  1.5184         0.389889   
      7. B(C   7,O   1)                  1.3583         0.628775   
      8. B(C   8,S   0)                  1.8072         0.363814   
      9. B(H   9,C   4)                  1.0968         0.351247   
     10. B(H  10,C   4)                  1.0997         0.347525   
     11. B(H  11,C   5)                  1.0945         0.354189   
     12. B(H  12,C   6)                  1.0947         0.353963   
     13. B(H  13,C   6)                  1.0954         0.352970   
     14. B(H  14,N   3)                  1.0196         0.417786   
     15. B(H  15,N   3)                  1.0194         0.417999   
     16. B(H  16,C   8)                  1.0925         0.356826   
     17. B(H  17,C   8)                  1.0937         0.355221   
     18. B(H  18,C   8)                  1.0931         0.356033   
     19. B(H  19,O   1)                  0.9810         0.481394   
     20. A(C   6,S   0,C   8)           98.2946         0.396906   
     21. A(C   7,O   1,H  19)          111.8820         0.366136   
     22. A(C   5,N   3,H  15)          109.5174         0.334352   
     23. A(H  14,N   3,H  15)          106.0953         0.299905   
     24. A(C   5,N   3,H  14)          109.5464         0.334324   
     25. A(H   9,C   4,H  10)          105.1711         0.288097   
     26. A(C   5,C   4,H  10)          108.7882         0.321385   
     27. A(C   6,C   4,H  10)          106.5431         0.322119   
     28. A(C   6,C   4,H   9)          110.2473         0.322682   
     29. A(C   5,C   4,H   9)          109.9817         0.321946   
     30. A(C   5,C   4,C   6)          115.5341         0.361752   
     31. A(N   3,C   5,H  11)          107.9279         0.328110   
     32. A(N   3,C   5,C   4)          109.2159         0.367561   
     33. A(N   3,C   5,C   7)          106.5086         0.371538   
     34. A(C   4,C   5,C   7)          111.1526         0.364774   
     35. A(C   7,C   5,H  11)          109.6801         0.325718   
     36. A(C   4,C   5,H  11)          112.1439         0.322386   
     37. A(S   0,C   6,C   4)          113.1756         0.378048   
     38. A(H  12,C   6,H  13)          106.5101         0.289148   
     39. A(C   4,C   6,H  13)          109.7802         0.322941   
     40. A(S   0,C   6,H  13)          108.5882         0.336137   
     41. A(C   4,C   6,H  12)          110.4985         0.323090   
     42. A(S   0,C   6,H  12)          108.0457         0.336295   
     43. A(O   1,C   7,C   5)          112.3412         0.398100   
     44. A(O   2,C   7,C   5)          125.0279         0.434391   
     45. A(O   1,C   7,O   2)          122.6188         0.470681   
     46. A(H  16,C   8,H  18)          110.1298         0.289905   
     47. A(S   0,C   8,H  18)          111.0283         0.338692   
     48. A(H  16,C   8,H  17)          107.7473         0.289802   
     49. A(H  17,C   8,H  18)          108.1481         0.289701   
     50. A(S   0,C   8,H  17)          108.7355         0.338563   
     51. A(S   0,C   8,H  16)          110.9404         0.338817   
     52. D(N   3,C   5,C   4,H  10)     56.7355         0.010735   
     53. D(N   3,C   5,C   4,H   9)    -57.9626         0.010735   
     54. D(C   7,C   5,C   4,H   9)   -175.1903         0.010735   
     55. D(C   7,C   5,N   3,H  15)    179.5963         0.015238   
     56. D(C   7,C   5,C   4,H  10)    -60.4922         0.010735   
     57. D(C   4,C   5,N   3,H  14)    175.4464         0.015238   
     58. D(N   3,C   5,C   4,C   6)    176.4602         0.010735   
     59. D(H  11,C   5,N   3,H  14)     53.2847         0.015238   
     60. D(C   7,C   5,C   4,C   6)     59.2325         0.010735   
     61. D(C   7,C   5,N   3,H  14)    -64.4294         0.015238   
     62. D(C   4,C   5,N   3,H  15)     59.4721         0.015238   
     63. D(H  13,C   6,S   0,C   8)    -62.0271         0.010000   
     64. D(C   4,C   6,S   0,C   8)     60.1374         0.010000   
     65. D(S   0,C   6,C   4,C   5)     58.8692         0.011020   
     66. D(H  12,C   6,C   4,H  10)     58.4975         0.011020   
     67. D(H  12,C   6,S   0,C   8)   -177.1718         0.010000   
     68. D(H  12,C   6,C   4,H   9)    172.1100         0.011020   
     69. D(H  12,C   6,C   4,C   5)    -62.4492         0.011020   
     70. D(S   0,C   6,C   4,H  10)    179.8159         0.011020   
     71. D(S   0,C   6,C   4,H   9)    -66.5717         0.011020   
     72. D(O   2,C   7,C   5,N   3)    -33.9062         0.011310   
     73. D(O   1,C   7,C   5,H  11)     28.3067         0.011310   
     74. D(O   1,C   7,C   5,C   4)    -96.2781         0.011310   
     75. D(O   1,C   7,C   5,N   3)    144.8564         0.011310   
     76. D(C   5,C   7,O   1,H  19)   -179.3408         0.029067   
     77. D(O   2,C   7,C   5,C   4)     84.9593         0.011310   
     78. D(O   2,C   7,O   1,H  19)     -0.5438         0.029067   
     79. D(H  18,C   8,S   0,C   6)     48.6470         0.010000   
     80. D(H  17,C   8,S   0,C   6)    167.5126         0.010000   
     81. D(H  16,C   8,S   0,C   6)    -74.1652         0.010000   
    -----------------------------------------------------------------

Number of atoms                         .... 20
Number of degrees of freedom            .... 81


         *************************************************************
         *                GEOMETRY OPTIMIZATION CYCLE   1            *
         *************************************************************
---------------------------------
CARTESIAN COORDINATES (ANGSTROEM)
---------------------------------
  S      2.285800    0.970100    0.279700
  O     -1.160700    1.640200    0.692100
  O     -2.590500    0.369300   -0.524000
  N     -1.362800   -1.877500    0.498600
  C      0.415600   -0.811100   -0.801300
  C     -0.566200   -0.653300    0.368600
  C      1.265600    0.422300   -1.120800
  C     -1.548600    0.475400    0.111000
  C      3.261700   -0.535500    0.496000
  H      1.059600   -1.683200   -0.635100
  H     -0.154000   -1.043500   -1.712800
  H     -0.051200   -0.483900    1.319400
  H      0.628200    1.259100   -1.423800
  H      1.923900    0.209000   -1.970000
  H     -1.963200   -1.808200    1.319700
  H     -0.744200   -2.670100    0.666900
  H      2.663800   -1.325600    0.956200
  H      4.099000   -0.318300    1.165300
  H      3.669000   -0.879400   -0.458300
  H     -1.805100    2.361900    0.530200

----------------------------
CARTESIAN COORDINATES (A.U.)
----------------------------
  NO LB      ZA    FRAG     MASS         X           Y           Z
   0 S    16.0000    0    32.060    4.319536    1.833223    0.528556
   1 O     8.0000    0    15.999   -2.193405    3.099529    1.307879
   2 O     8.0000    0    15.999   -4.895336    0.697876   -0.990216
   3 N     7.0000    0    14.007   -2.575319   -3.547961    0.942217
   4 C     6.0000    0    12.011    0.785370   -1.532757   -1.514238
   5 C     6.0000    0    12.011   -1.069963   -1.234558    0.696553
   6 C     6.0000    0    12.011    2.391637    0.798031   -2.118005
   7 C     6.0000    0    12.011   -2.926430    0.898376    0.209760
   8 C     6.0000    0    12.011    6.163720   -1.011948    0.937304
   9 H     1.0000    0     1.008    2.002354   -3.180787   -1.200165
  10 H     1.0000    0     1.008   -0.291018   -1.971929   -3.236723
  11 H     1.0000    0     1.008   -0.096754   -0.914438    2.493305
  12 H     1.0000    0     1.008    1.187126    2.379354   -2.690592
  13 H     1.0000    0     1.008    3.635644    0.394953   -3.722760
  14 H     1.0000    0     1.008   -3.709910   -3.417003    2.493872
  15 H     1.0000    0     1.008   -1.406334   -5.045758    1.260258
  16 H     1.0000    0     1.008    5.033852   -2.505021    1.806956
  17 H     1.0000    0     1.008    7.745987   -0.601500    2.202098
  18 H     1.0000    0     1.008    6.933405   -1.661825   -0.866061
  19 H     1.0000    0     1.008   -3.411145    4.463344    1.001933

--------------------------------
INTERNAL COORDINATES (ANGSTROEM)
--------------------------------
 S      0   0   0     0.000000000000     0.00000000     0.00000000
 O      1   0   0     3.535176094624     0.00000000     0.00000000
 O      2   1   0     2.266807018694   116.49218788     0.00000000
 N      3   2   1     2.757003498366    88.68436869    53.27084502
 C      4   3   2     2.447377275779    76.79003418   295.75650325
 C      4   3   2     1.466334613927    61.87863139   331.38165834
 C      5   4   3     1.531618689492   149.87806368    53.75606344
 C      3   2   1     1.224760311245    30.31089411    35.58192444
 C      1   2   3     1.807207198968   132.09904633   302.96313892
 H      5   4   3     1.096775660744    89.98375147   187.31639997
 H      5   4   3     1.099675483950    88.38289677   292.49412209
 H      6   4   3     1.094505367735   107.92793047   131.01624624
 H      7   5   4     1.094678948368   110.49851004   301.54224532
 H      7   5   4     1.095443480970   109.78022473   184.35700539
 H      4   3   2     1.019552774505    88.91640819    84.30684421
 H      4   3   2     1.019414346574   164.81289019   272.90054055
 H      9   1   2     1.092486366048   110.94038290   351.41325190
 H      9   1   2     1.093713682826   108.73554016   233.09102328
 H      9   1   2     1.093091482905   111.02825657   114.22544207
 H      2   1   3     0.980975973202   139.51880385   244.63703414

---------------------------
INTERNAL COORDINATES (A.U.)
---------------------------
 S      0   0   0     0.000000000000     0.00000000     0.00000000
 O      1   0   0     6.680514654024     0.00000000     0.00000000
 O      2   1   0     4.283644463782   116.49218788     0.00000000
 N      3   2   1     5.209981562174    88.68436869    53.27084502
 C      4   3   2     4.624872797605    76.79003418   295.75650325
 C      4   3   2     2.770970841011    61.87863139   331.38165834
 C      5   4   3     2.894339864735   149.87806368    53.75606344
 C      3   2   1     2.314461567948    30.31089411    35.58192444
 C      1   2   3     3.415126673300   132.09904633   302.96313892
 H      5   4   3     2.072605629156    89.98375147   187.31639997
 H      5   4   3     2.078085500852    88.38289677   292.49412209
 H      6   4   3     2.068315397125   107.92793047   131.01624624
 H      7   5   4     2.068643416984   110.49851004   301.54224532
 H      7   5   4     2.070088174223   109.78022473   184.35700539
 H      4   3   2     1.926675522893    88.91640819    84.30684421
 H      4   3   2     1.926413932014   164.81289019   272.90054055
 H      9   1   2     2.064500036873   110.94038290   351.41325190
 H      9   1   2     2.066819329463   108.73554016   233.09102328
 H      9   1   2     2.065643542013   111.02825657   114.22544207
 H      2   1   3     1.853775933309   139.51880385   244.63703414

---------------------
BASIS SET INFORMATION
---------------------
There are 5 groups of distinct atoms

 Group   1 Type S   : 16s10p1d contracted to 4s3p1d pattern {6631/631/1}
 Group   2 Type O   : 10s4p1d contracted to 3s2p1d pattern {631/31/1}
 Group   3 Type N   : 10s4p1d contracted to 3s2p1d pattern {631/31/1}
 Group   4 Type C   : 10s4p1d contracted to 3s2p1d pattern {631/31/1}
 Group   5 Type H   : 4s1p contracted to 2s1p pattern {31/1}

Atom   0S    basis set group =>   1
Atom   1O    basis set group =>   2
Atom   2O    basis set group =>   2
Atom   3N    basis set group =>   3
Atom   4C    basis set group =>   4
Atom   5C    basis set group =>   4
Atom   6C    basis set group =>   4
Atom   7C    basis set group =>   4
Atom   8C    basis set group =>   4
Atom   9H    basis set group =>   5
Atom  10H    basis set group =>   5
Atom  11H    basis set group =>   5
Atom  12H    basis set group =>   5
Atom  13H    basis set group =>   5
Atom  14H    basis set group =>   5
Atom  15H    basis set group =>   5
Atom  16H    basis set group =>   5
Atom  17H    basis set group =>   5
Atom  18H    basis set group =>   5
Atom  19H    basis set group =>   5
---------------------------------
AUXILIARY/J BASIS SET INFORMATION
---------------------------------
There are 5 groups of distinct atoms

 Group   1 Type S   : 14s5p5d2f1g contracted to 8s4p3d1f1g pattern {71111111/2111/311/2/1}
 Group   2 Type O   : 12s5p4d2f1g contracted to 6s4p3d1f1g pattern {711111/2111/211/2/1}
 Group   3 Type N   : 12s5p4d2f1g contracted to 6s4p3d1f1g pattern {711111/2111/211/2/1}
 Group   4 Type C   : 12s5p4d2f1g contracted to 6s4p3d1f1g pattern {711111/2111/211/2/1}
 Group   5 Type H   : 5s2p1d contracted to 3s1p1d pattern {311/2/1}

Atom   0S    basis set group =>   1
Atom   1O    basis set group =>   2
Atom   2O    basis set group =>   2
Atom   3N    basis set group =>   3
Atom   4C    basis set group =>   4
Atom   5C    basis set group =>   4
Atom   6C    basis set group =>   4
Atom   7C    basis set group =>   4
Atom   8C    basis set group =>   4
Atom   9H    basis set group =>   5
Atom  10H    basis set group =>   5
Atom  11H    basis set group =>   5
Atom  12H    basis set group =>   5
Atom  13H    basis set group =>   5
Atom  14H    basis set group =>   5
Atom  15H    basis set group =>   5
Atom  16H    basis set group =>   5
Atom  17H    basis set group =>   5
Atom  18H    basis set group =>   5
Atom  19H    basis set group =>   5


           ************************************************************
           *        Program running with 2 parallel MPI-processes     *
           *              working on a common directory               *
           ************************************************************
------------------------------------------------------------------------------
                             ORCA STARTUP CALCULATIONS
                           -- RI-GTO INTEGRALS CHOSEN --
------------------------------------------------------------------------------
------------------------------------------------------------------------------
                   ___                                                        
                  /   \      - P O W E R E D   B Y -                         
                 /     \                                                     
                 |  |  |   _    _      __       _____    __    __             
                 |  |  |  | |  | |    /  \     |  _  \  |  |  /  |          
                  \  \/   | |  | |   /    \    | | | |  |  | /  /          
                 / \  \   | |__| |  /  /\  \   | |_| |  |  |/  /          
                |  |  |   |  __  | /  /__\  \  |    /   |      \           
                |  |  |   | |  | | |   __   |  |    \   |  |\   \          
                \     /   | |  | | |  |  |  |  | |\  \  |  | \   \       
                 \___/    |_|  |_| |__|  |__|  |_| \__\ |__|  \__/        
                                                                              
                      - O R C A' S   B I G   F R I E N D -                    
                                      &                                       
                       - I N T E G R A L  F E E D E R -                       
                                                                              
 v1 FN, 2020, v2 2021, v3 2022-2024                                           
------------------------------------------------------------------------------


----------------------
SHARK INTEGRAL PACKAGE
----------------------

Number of atoms                             ...     20
Number of basis functions                   ...    185
Number of shells                            ...     89
Maximum angular momentum                    ...      2
Integral batch strategy                     ... SHARK/LIBINT Hybrid
RI-J (if used) integral strategy            ... SPLIT-RIJ (Revised 2003 algorithm where possible)
Printlevel                                  ...      1
Contraction scheme used                     ... SEGMENTED contraction
Prescreening option                         ... SCHWARTZ
   Thresh                                   ... 2.500e-11
   Tcut                                     ... 2.500e-12
   Tpresel                                  ... 2.500e-12 
Coulomb Range Separation                    ... NOT USED
Exchange Range Separation                   ... NOT USED
Multipole approximations                    ... NOT USED
Finite Nucleus Model                        ... NOT USED
CABS basis                                  ... NOT available
Auxiliary Coulomb fitting basis             ... AVAILABLE
   # of basis functions in Aux-J            ...    564
   # of shells in Aux-J                     ...    192
   Maximum angular momentum in Aux-J        ...      4
Auxiliary J/K fitting basis                 ... NOT available
Auxiliary Correlation fitting basis         ... NOT available
Auxiliary 'external' fitting basis          ... NOT available

Checking pre-screening integrals            ... done (  0.0 sec) Dimension = 89
   => SHARK Basis and OBASIS are compatible. Storing Pre-screening
Shell pair information
Shell pair cut-off parameter TPreSel        ...   2.5e-12
Total number of shell pairs                 ...      4005
Shell pairs after pre-screening             ...      3573
Total number of primitive shell pairs       ...     20755
Primitive shell pairs kept                  ...     11960
          la=0 lb=0:   1138 shell pairs
          la=1 lb=0:   1331 shell pairs
          la=1 lb=1:    413 shell pairs
          la=2 lb=0:    406 shell pairs
          la=2 lb=1:    243 shell pairs
          la=2 lb=2:     42 shell pairs

Checking whether 4 symmetric matrices of dimension 185 fit in memory
:Max Core in MB      =   3000.00
 MB in use           =      8.31
 MB left             =   2991.69
 MB needed           =      0.53
 Data fit in memory  = YES
Calculating RI/J V-Matrix + Cholesky decomp.... done (  0.0 sec)
Calculating Nuclear repulsion               ... done (  0.0 sec) ENN=    562.004634053679 Eh

Diagonalization of the overlap matrix:
Smallest eigenvalue                        ... 3.269e-03
Time for diagonalization                   ...    0.005 sec
Threshold for overlap eigenvalues          ... 1.000e-07
Number of eigenvalues below threshold      ... 0
Time for construction of square roots      ...    0.001 sec
Total time needed                          ...    0.007 sec

-------------------
DFT GRID GENERATION
-------------------

General Integration Accuracy     IntAcc      ... 4.388
Radial Grid Type                 RadialGrid  ... OptM3 with GC (2021)
Angular Grid (max. ang.)         AngularGrid ... 4 (Lebedev-302)
Angular grid pruning method      GridPruning ... 4 (adaptive)
Weight generation scheme         WeightScheme... mBecke (2022)
Basis function cutoff            BFCut       ... 1.0000e-11
Integration weight cutoff        WCut        ... 1.0000e-14
Partially contracted basis set               ... off
Rotationally invariant grid construction     ... off
Angular grids for H and He will be reduced by one unit

Total number of grid points                  ...    90752
Total number of batches                      ...     1427
Average number of points per batch           ...       63
Average number of grid points per atom       ...     4538

--------------------
COSX GRID GENERATION
--------------------

GRIDX 1
-------
General Integration Accuracy     IntAcc      ... 3.816
Radial Grid Type                 RadialGrid  ... OptM3 with GC (2021)
Angular Grid (max. ang.)         AngularGrid ... 1 (Lebedev-50)
Angular grid pruning method      GridPruning ... 4 (adaptive)
Weight generation scheme         WeightScheme... mBecke (2022)
Basis function cutoff            BFCut       ... 1.0000e-11
Integration weight cutoff        WCut        ... 1.0000e-14
Partially contracted basis set               ... on
Rotationally invariant grid construction     ... off
Angular grids for H and He will be reduced by one unit

Total number of grid points                  ...    12617
Total number of batches                      ...      109
Average number of points per batch           ...      115
Average number of grid points per atom       ...      631
UseSFitting                                  ... on

GRIDX 2
-------
General Integration Accuracy     IntAcc      ... 4.020
Radial Grid Type                 RadialGrid  ... OptM3 with GC (2021)
Angular Grid (max. ang.)         AngularGrid ... 2 (Lebedev-110)
Angular grid pruning method      GridPruning ... 4 (adaptive)
Weight generation scheme         WeightScheme... mBecke (2022)
Basis function cutoff            BFCut       ... 1.0000e-11
Integration weight cutoff        WCut        ... 1.0000e-14
Partially contracted basis set               ... on
Rotationally invariant grid construction     ... off
Angular grids for H and He will be reduced by one unit

Total number of grid points                  ...    24595
Total number of batches                      ...      203
Average number of points per batch           ...      121
Average number of grid points per atom       ...     1230
UseSFitting                                  ... on

GRIDX 3
-------
General Integration Accuracy     IntAcc      ... 4.338
Radial Grid Type                 RadialGrid  ... OptM3 with GC (2021)
Angular Grid (max. ang.)         AngularGrid ... 3 (Lebedev-194)
Angular grid pruning method      GridPruning ... 4 (adaptive)
Weight generation scheme         WeightScheme... mBecke (2022)
Basis function cutoff            BFCut       ... 1.0000e-11
Integration weight cutoff        WCut        ... 1.0000e-14
Partially contracted basis set               ... on
Rotationally invariant grid construction     ... off
Angular grids for H and He will be reduced by one unit

Total number of grid points                  ...    54339
Total number of batches                      ...      434
Average number of points per batch           ...      125
Average number of grid points per atom       ...     2717
UseSFitting                                  ... on
Grids setup in   1.8 sec
Initializing property integral containers    ... done (  0.1 sec)

SHARK setup successfully completed in   2.2 seconds

Maximum memory used throughout the entire STARTUP-calculation: 31.1 MB


           ************************************************************
           *        Program running with 2 parallel MPI-processes     *
           *              working on a common directory               *
           ************************************************************
-------------------------------------------------------------------------------
                                 ORCA GUESS
                   Start orbitals & Density for SCF / CASSCF
-------------------------------------------------------------------------------

------------
SCF SETTINGS
------------
Hamiltonian:
 Density Functional     Method          .... DFT(GTOs)
 Exchange Functional    Exchange        .... B88
   X-Alpha parameter    XAlpha          ....  0.666667
   Becke's b parameter  XBeta           ....  0.004200
 Correlation Functional Correlation     .... LYP
 LDA part of GGA corr.  LDAOpt          .... VWN-5
 Gradients option       PostSCFGGA      .... off
 Hybrid DFT is turned on
   Fraction HF Exchange ScalHFX         ....  0.200000
   Scaling of DF-GGA-X  ScalDFX         ....  0.720000
   Scaling of DF-GGA-C  ScalDFC         ....  0.810000
   Scaling of DF-LDA-C  ScalLDAC        ....  1.000000
   Perturbative correction              ....  0.000000
   NL short-range parameter             ....  4.800000
 RI-approximation to the Coulomb term is turned on
   Number of AuxJ basis functions       .... 564
   RIJ-COSX (HFX calculated with COS-X)).... on


General Settings:
 Integral files         IntName         .... /kaggle/working/Met-1/Met_InterFrag
 Hartree-Fock type      HFTyp           .... RHF
 Total Charge           Charge          ....    0
 Multiplicity           Mult            ....    1
 Number of Electrons    NEL             ....   80
 Basis Dimension        Dim             ....  185
 Nuclear Repulsion      ENuc            ....    562.0046340537 Eh

Convergence Acceleration:
 AO-DIIS                CNVDIIS         .... on
   Start iteration      DIISMaxIt       ....    12
   Startup error        DIISStart       ....  0.200000
   # of expansion vecs  DIISMaxEq       ....     5
   Bias factor          DIISBfac        ....   1.050
   Max. coefficient     DIISMaxC        ....  10.000
 MO-DIIS                CNVKDIIS        .... off
 Trust-Rad. Augm. Hess. CNVTRAH         .... auto
   Auto Start mean grad. ratio tolernc. ....  1.125000
   Auto Start start iteration           ....    50
   Auto Start num. interpolation iter.  ....    10
   Max. Number of Micro iterations      ....    24
   Max. Number of Macro iterations      .... Maxiter - #DIIS iter
   Number of Davidson start vectors     ....     2
   Converg. threshold    (grad. norm)   ....   1.000e-05
   Grad. Scal. Fac. for Micro threshold ....   0.100
   Minimum threshold for Micro iter.    ....   1.000e-02
   NR start threshold (gradient norm)   ....   1.000e-04
   Initial trust radius                 ....   0.400
   Minimum AH scaling param. (alpha)    ....   1.000
   Maximum AH scaling param. (alpha)    .... 1000.000
   Quad. conv. algorithm                .... NR
   White noise on init. David. guess    .... on
   Maximum white noise                  ....   0.010
   Pseudo random numbers                .... off
   Inactive MOs                         .... canonical
   Orbital update algorithm             .... Taylor
   Preconditioner                       .... Diag
   Full preconditioner red. dimension   ....   250
 SOSCF                 CNVSOSCF           .... on
   Start iteration     SOSCFMaxIt         ....   150
   Startup grad/error  SOSCFStart         ....  0.000330
   Hessian update      SOSCFHessUp        .... L-BFGS
   Autom. constraints  SOSCFAutoConstrain .... off
 Level Shifting         CNVShift        .... on
   Level shift para.    LevelShift      ....    0.2500
   Turn off err/grad.   ShiftErr        ....    0.0010
 Zerner damping         CNVZerner       .... off
 Static damping         CNVDamp         .... on
   Fraction old density DampFac         ....    0.7000
   Max. Damping (<1)    DampMax         ....    0.9800
   Min. Damping (>=0)   DampMin         ....    0.0000
   Turn off err/grad.   DampErr         ....    0.1000

SCF Procedure:
 Maximum # iterations   MaxIter         ....  1000
 SCF integral mode      SCFMode         .... Direct
   Integral package                     .... SHARK and LIBINT hybrid scheme
 Reset frequency        DirectResetFreq ....    20
 Integral Threshold     Thresh          ....  2.500e-11 Eh
 Primitive CutOff       TCut            ....  2.500e-12 Eh

Convergence Tolerance:
 Convergence Check Mode ConvCheckMode   .... Total+1el-Energy
 Convergence forced     ConvForced      .... 0
 Energy Change          TolE            ....  1.000e-08 Eh
 1-El. energy change                    ....  1.000e-05 Eh
 Orbital Gradient       TolG            ....  1.000e-05
 Orbital Rotation angle TolX            ....  1.000e-05
 DIIS Error             TolErr          ....  5.000e-07

------------------------------
INITIAL GUESS: MODEL POTENTIAL
------------------------------
Loading Hartree-Fock densities                     ... done
Calculating cut-offs                               ... done
Initializing the effective Hamiltonian             ... done
Setting up the integral package (SHARK)            ... done
Starting the Coulomb interaction                   ... done (   0.2 sec)
Making the grid                                    ... done (   0.3 sec)
Mapping shells                                     ... done
Starting the XC term evaluation                    ... done (   0.2 sec)
  promolecular density results
     # of electrons  =     79.992380196
     EX              =    -76.961079591
     EC              =     -2.816745377
     EX+EC           =    -79.777824968
Transforming the Hamiltonian                       ... done (   0.0 sec)
Diagonalizing the Hamiltonian                      ... done (   0.0 sec)
Back transforming the eigenvectors                 ... done (   2.9 sec)
Now organizing SCF variables                       ... done
                      ------------------
                      INITIAL GUESS DONE (   3.6 sec)
                      ------------------
             **** ENERGY FILE WAS UPDATED (/kaggle/working/Met-1/Met_InterFrag.en.tmp) ****
Finished Guess after   4.3 sec
Maximum memory used throughout the entire GUESS-calculation: 12.2 MB


           ************************************************************
           *        Program running with 2 parallel MPI-processes     *
           *              working on a common directory               *
           ************************************************************

-------------------------------------------------------------------------------------------
                                      ORCA LEAN-SCF
                              memory conserving SCF solver
-------------------------------------------------------------------------------------------

--------------------
CPCM SOLVATION MODEL
--------------------
CPCM parameters:
  Epsilon                                         ...      78.3550
  Refrac                                          ...       1.3328
  Rsolv                                           ...       1.3000
  Surface type                                    ... GAUSSIAN VDW
  Discretization scheme                           ... Constant charge density
    Threshold for H atoms                         ...       5.0000 (charges/Ang^2)
    Threshold for non-H atoms                     ...       5.0000 (charges/Ang^2)
  Epsilon function type                           ...         CPCM
Solvent:                                          ... WATER
SMD-CDS solvent descriptors:
  Soln                                            ...       1.3328
  Soln25                                          ...       1.3323
  Sola                                            ...       0.0000
  Solb                                            ...       0.0000
  Solg                                            ...       0.0000
  Solc                                            ...       0.0000
  Solh                                            ...       0.0000
Radii:
  Scheme                                          ... Element-dependent radii
  Radius for S  used is    4.7054 Bohr (=   2.4900 Ang.)
  Radius for O  used is    2.8724 Bohr (=   1.5200 Ang.)
  Radius for N  used is    3.5716 Bohr (=   1.8900 Ang.)
  Radius for C  used is    3.4960 Bohr (=   1.8500 Ang.)
  Radius for H  used is    2.2677 Bohr (=   1.2000 Ang.)
Calculating surface                               ...        done! (  0.0s)
Cavity surface points                             ...         1586
Cavity Volume                                     ...    1129.3318
Cavity Surface-area                               ...     660.6178
Calculating surface distance matrix               ...        done! (  0.1s)
Performing Cholesky decomposition & store         ...        done! (  0.1s)
Overall time for CPCM initialization              ...                 0.2s

----------------------------------------D-I-I-S--------------------------------------------
Iteration    Energy (Eh)           Delta-E    RMSDP     MaxDP     DIISErr   Damp  Time(sec)
-------------------------------------------------------------------------------------------
               ***  Starting incremental Fock matrix formation  ***
    1    -799.9613555844701978     0.00e+00  4.35e-03  8.82e-02  2.60e-01  0.700   4.6
    2    -800.1137757278714844    -1.52e-01  2.89e-03  5.37e-02  1.18e-01  0.700   2.8
                               ***Turning on AO-DIIS***
    3    -800.1697248354511203    -5.59e-02  1.16e-03  2.21e-02  3.60e-02  0.700   2.5
    4    -800.2036900534586721    -3.40e-02  1.84e-03  4.68e-02  1.41e-02  0.000   2.4
    5    -800.2794901745504603    -7.58e-02  4.10e-04  6.26e-03  7.57e-03  0.000   2.5
    6    -800.2799469959066982    -4.57e-04  1.26e-04  1.66e-03  2.25e-03  0.000   2.3
    7    -800.2799783476629045    -3.14e-05  4.82e-05  6.59e-04  4.51e-04  0.000   2.1
               *** Restarting incremental Fock matrix formation ***
                             ****Resetting DIIS****
                              *** Initializing SOSCF ***
---------------------------------------S-O-S-C-F--------------------------------------
Iteration    Energy (Eh)           Delta-E    RMSDP     MaxDP     MaxGrad    Time(sec)
--------------------------------------------------------------------------------------
    8    -800.2799411046513569     3.72e-05  3.06e-05  4.24e-04  1.17e-04     4.4
               *** Restarting incremental Fock matrix formation ***
    9    -800.2799414444283457    -3.40e-07  1.00e-05  2.56e-04  7.14e-05     4.4
   10    -800.2799413917963420     5.26e-08  5.67e-06  1.56e-04  9.59e-05     2.5
   11    -800.2799415322848517    -1.40e-07  1.59e-06  3.80e-05  7.65e-06     2.4
   12    -800.2799415336695574    -1.38e-09  8.37e-07  2.48e-05  1.38e-05     2.0
                 **** Energy Check signals convergence ****

               *****************************************************
               *                     SUCCESS                       *
               *           SCF CONVERGED AFTER  12 CYCLES          *
               *****************************************************

Recomputing exchange energy using gridx3       ... done (    6.578 sec)
Old exchange energy                            :    -15.600488046 Eh
New exchange energy                            :    -15.600517317 Eh
Exchange energy change after final integration :     -0.000029271 Eh
Total energy after final integration           :   -800.279970802 Eh

SMD CDS free energy correction energy :                 4.20777     Kcal/mol
Total Energy after SMD CDS correction =              -800.273265296 Eh
             **** ENERGY FILE WAS UPDATED (/kaggle/working/Met-1/Met_InterFrag.en.tmp) ****

----------------
TOTAL SCF ENERGY
----------------

Total Energy       :       -800.27326529608706 Eh          -21776.54265 eV

Components:
Nuclear Repulsion  :        562.00463405367884 Eh           15292.92357 eV
Electronic Energy  :      -1362.25012241027571 Eh          -37068.71037 eV
One Electron Energy:      -2213.97193840568298 Eh          -60245.23925 eV
Two Electron Energy:        851.72181599540738 Eh           23176.52889 eV
CPCM Dielectric    :         -0.03445317466339 Eh              -0.93752 eV
SMD CDS (Gcds)     :          0.00670550592459 Eh               0.18247 eV

Virial components:
Potential Energy   :      -1597.23958487610707 Eh          -43463.09873 eV
Kinetic Energy     :        796.96631958002001 Eh           21686.55608 eV
Virial Ratio       :          2.00414941715204

DFT components:
N(Alpha)           :       39.999977187620 electrons
N(Beta)            :       39.999977187620 electrons
N(Total)           :       79.999954375240 electrons
E(X)               :      -61.932374387628 Eh       
E(C)               :       -3.317994046536 Eh       
E(XC)              :      -65.250368434164 Eh       

CPCM Solvation Model Properties:
Surface-charge          :         -0.02861340544139
Corrected charge        :         -0.00000000000000
Outlying charge corr.   :          0.00005859685439 Eh               0.00159 eV
Free-energy (cav+disp)  :          0.00670550592459 Eh               0.18247 eV

---------------
SCF CONVERGENCE
---------------

  Last Energy change         ...    1.3847e-09  Tolerance :   1.0000e-08
  Last MAX-Density change    ...    2.4847e-05  Tolerance :   1.0000e-07
  Last RMS-Density change    ...    8.3721e-07  Tolerance :   5.0000e-09
  Last DIIS Error            ...    1.1682e-04  Tolerance :   5.0000e-07
  Last Orbital Gradient      ...    1.3845e-05  Tolerance :   1.0000e-05
  Last Orbital Rotation      ...    1.6385e-05  Tolerance :   1.0000e-05


----------------
ORBITAL ENERGIES
----------------

  NO   OCC          E(Eh)            E(eV) 
   0   2.0000     -88.839273     -2417.4395 
   1   2.0000     -19.186817      -522.0998 
   2   2.0000     -19.138585      -520.7874 
   3   2.0000     -14.300917      -389.1477 
   4   2.0000     -10.317403      -280.7508 
   5   2.0000     -10.213852      -277.9330 
   6   2.0000     -10.196241      -277.4538 
   7   2.0000     -10.186453      -277.1875 
   8   2.0000     -10.179643      -277.0022 
   9   2.0000      -7.915639      -215.3955 
  10   2.0000      -5.879917      -160.0007 
  11   2.0000      -5.876267      -159.9014 
  12   2.0000      -5.869821      -159.7259 
  13   2.0000      -1.093452       -29.7543 
  14   2.0000      -1.008516       -27.4431 
  15   2.0000      -0.881577       -23.9889 
  16   2.0000      -0.803138       -21.8545 
  17   2.0000      -0.742496       -20.2043 
  18   2.0000      -0.692220       -18.8363 
  19   2.0000      -0.646800       -17.6003 
  20   2.0000      -0.590094       -16.0573 
  21   2.0000      -0.555148       -15.1064 
  22   2.0000      -0.502584       -13.6760 
  23   2.0000      -0.478219       -13.0130 
  24   2.0000      -0.475780       -12.9466 
  25   2.0000      -0.454064       -12.3557 
  26   2.0000      -0.433623       -11.7995 
  27   2.0000      -0.420509       -11.4426 
  28   2.0000      -0.412631       -11.2282 
  29   2.0000      -0.404791       -11.0149 
  30   2.0000      -0.391741       -10.6598 
  31   2.0000      -0.375949       -10.2301 
  32   2.0000      -0.367352        -9.9962 
  33   2.0000      -0.347358        -9.4521 
  34   2.0000      -0.334203        -9.0941 
  35   2.0000      -0.316196        -8.6041 
  36   2.0000      -0.295540        -8.0421 
  37   2.0000      -0.276680        -7.5289 
  38   2.0000      -0.236934        -6.4473 
  39   2.0000      -0.208946        -5.6857 
  40   0.0000       0.002601         0.0708 
  41   0.0000       0.053101         1.4450 
  42   0.0000       0.090623         2.4660 
  43   0.0000       0.100135         2.7248 
  44   0.0000       0.107149         2.9157 
  45   0.0000       0.116629         3.1736 
  46   0.0000       0.136524         3.7150 
  47   0.0000       0.153910         4.1881 
  48   0.0000       0.155946         4.2435 
  49   0.0000       0.169670         4.6169 
  50   0.0000       0.183541         4.9944 
  51   0.0000       0.198123         5.3912 
  52   0.0000       0.207254         5.6397 
  53   0.0000       0.218644         5.9496 
  54   0.0000       0.226221         6.1558 
  55   0.0000       0.235874         6.4185 
  56   0.0000       0.261506         7.1159 
  57   0.0000       0.275848         7.5062 
  58   0.0000       0.336243         9.1496 
  59   0.0000       0.365289         9.9400 
  60   0.0000       0.376333        10.2406 
  61   0.0000       0.399931        10.8827 
  62   0.0000       0.404504        11.0071 
  63   0.0000       0.447414        12.1747 
  64   0.0000       0.477356        12.9895 
  65   0.0000       0.519198        14.1281 
  66   0.0000       0.537700        14.6316 
  67   0.0000       0.552929        15.0460 
  68   0.0000       0.596421        16.2294 
  69   0.0000       0.601190        16.3592 
  70   0.0000       0.610789        16.6204 
  71   0.0000       0.625731        17.0270 
  72   0.0000       0.643612        17.5136 
  73   0.0000       0.653831        17.7916 
  74   0.0000       0.675877        18.3915 
  75   0.0000       0.692147        18.8343 
  76   0.0000       0.721230        19.6257 
  77   0.0000       0.741386        20.1741 
  78   0.0000       0.758529        20.6406 
  79   0.0000       0.771256        20.9869 
  80   0.0000       0.808725        22.0065 
  81   0.0000       0.830940        22.6110 
  82   0.0000       0.838452        22.8154 
  83   0.0000       0.853940        23.2369 
  84   0.0000       0.858875        23.3712 
  85   0.0000       0.860419        23.4132 
  86   0.0000       0.875969        23.8363 
  87   0.0000       0.891100        24.2481 
  88   0.0000       0.897217        24.4145 
  89   0.0000       0.908106        24.7108 
  90   0.0000       0.921298        25.0698 
  91   0.0000       0.924426        25.1549 
  92   0.0000       0.937834        25.5198 
  93   0.0000       0.952601        25.9216 
  94   0.0000       0.968043        26.3418 
  95   0.0000       0.976282        26.5660 
  96   0.0000       0.985523        26.8174 
  97   0.0000       1.014503        27.6060 
  98   0.0000       1.030600        28.0441 
  99   0.0000       1.043818        28.4037 
 100   0.0000       1.060415        28.8554 
 101   0.0000       1.082515        29.4567 
 102   0.0000       1.102980        30.0136 
 103   0.0000       1.127415        30.6785 
 104   0.0000       1.168482        31.7960 
 105   0.0000       1.242551        33.8115 
 106   0.0000       1.295366        35.2487 
 107   0.0000       1.328182        36.1417 
 108   0.0000       1.365396        37.1543 
 109   0.0000       1.417700        38.5776 
 110   0.0000       1.439079        39.1593 
 111   0.0000       1.459602        39.7178 
 112   0.0000       1.481601        40.3164 
 113   0.0000       1.500011        40.8174 
 114   0.0000       1.549550        42.1654 
 115   0.0000       1.554126        42.2899 
 116   0.0000       1.587845        43.2075 
 117   0.0000       1.615958        43.9725 
 118   0.0000       1.715967        46.6938 
 119   0.0000       1.732778        47.1513 
 120   0.0000       1.754731        47.7487 
 121   0.0000       1.774457        48.2854 
 122   0.0000       1.786464        48.6121 
 123   0.0000       1.820472        49.5376 
 124   0.0000       1.855180        50.4820 
 125   0.0000       1.891316        51.4653 
 126   0.0000       1.898366        51.6572 
 127   0.0000       1.918564        52.2068 
 128   0.0000       1.941757        52.8379 
 129   0.0000       1.947453        52.9929 
 130   0.0000       2.012851        54.7725 
 131   0.0000       2.034645        55.3655 
 132   0.0000       2.049712        55.7755 
 133   0.0000       2.071027        56.3555 
 134   0.0000       2.082548        56.6690 
 135   0.0000       2.105790        57.3014 
 136   0.0000       2.120854        57.7114 
 137   0.0000       2.133944        58.0676 
 138   0.0000       2.161399        58.8147 
 139   0.0000       2.180132        59.3244 
 140   0.0000       2.216249        60.3072 
 141   0.0000       2.229639        60.6716 
 142   0.0000       2.244980        61.0890 
 143   0.0000       2.281765        62.0900 
 144   0.0000       2.286990        62.2322 
 145   0.0000       2.319513        63.1171 
 146   0.0000       2.345001        63.8107 
 147   0.0000       2.361398        64.2569 
 148   0.0000       2.363860        64.3239 
 149   0.0000       2.402436        65.3736 
 150   0.0000       2.418568        65.8126 
 151   0.0000       2.468531        67.1721 
 152   0.0000       2.506938        68.2173 
 153   0.0000       2.521801        68.6217 
 154   0.0000       2.545719        69.2725 
 155   0.0000       2.584764        70.3350 
 156   0.0000       2.599737        70.7424 
 157   0.0000       2.632423        71.6319 
 158   0.0000       2.661125        72.4129 
 159   0.0000       2.672070        72.7107 
 160   0.0000       2.704480        73.5926 
 161   0.0000       2.729254        74.2668 
 162   0.0000       2.762373        75.1680 
 163   0.0000       2.806885        76.3792 
 164   0.0000       2.823548        76.8327 
 165   0.0000       2.826842        76.9223 
 166   0.0000       2.836798        77.1932 
 167   0.0000       2.865167        77.9651 
 168   0.0000       2.880573        78.3844 
 169   0.0000       2.901279        78.9478 
 170   0.0000       2.908361        79.1405 
 171   0.0000       2.992619        81.4333 
 172   0.0000       3.059162        83.2440 
 173   0.0000       3.172021        86.3151 
 174   0.0000       3.192654        86.8765 
 175   0.0000       3.288347        89.4805 
 176   0.0000       3.312331        90.1331 
 177   0.0000       3.338626        90.8486 
 178   0.0000       3.400050        92.5201 
 179   0.0000       3.426629        93.2433 
 180   0.0000       3.441921        93.6594 
 181   0.0000       3.466330        94.3236 
 182   0.0000       3.497781        95.1795 
 183   0.0000       3.514039        95.6219 
 184   0.0000       3.548163        96.5504 

                    ********************************
                    * MULLIKEN POPULATION ANALYSIS *
                    ********************************

-----------------------
MULLIKEN ATOMIC CHARGES
-----------------------
   0 S :    0.017851
   1 O :   -0.499352
   2 O :   -0.510455
   3 N :   -0.640885
   4 C :   -0.186795
   5 C :    0.010874
   6 C :   -0.337848
   7 C :    0.564128
   8 C :   -0.466026
   9 H :    0.134456
  10 H :    0.121933
  11 H :    0.133167
  12 H :    0.150469
  13 H :    0.149213
  14 H :    0.265500
  15 H :    0.266456
  16 H :    0.154119
  17 H :    0.150879
  18 H :    0.151132
  19 H :    0.371183
Sum of atomic charges:   -0.0000000

--------------------------------
MULLIKEN REDUCED ORBITAL CHARGES
--------------------------------
  0 S s       :     5.839965  s :     5.839965
      pz      :     3.414081  p :    10.073607
      px      :     3.385026
      py      :     3.274500
      dz2     :     0.013251  d :     0.068577
      dxz     :     0.014898
      dyz     :     0.010737
      dx2y2   :     0.010300
      dxy     :     0.019389

  1 O s       :     3.827223  s :     3.827223
      pz      :     1.723741  p :     4.651102
      px      :     1.651684
      py      :     1.275677
      dz2     :     0.003746  d :     0.021027
      dxz     :     0.002798
      dyz     :     0.004261
      dx2y2   :     0.002387
      dxy     :     0.007835

  2 O s       :     3.846215  s :     3.846215
      pz      :     1.445201  p :     4.638668
      px      :     1.408291
      py      :     1.785176
      dz2     :     0.005667  d :     0.025572
      dxz     :     0.007464
      dyz     :     0.001764
      dx2y2   :     0.005826
      dxy     :     0.004851

  3 N s       :     3.613693  s :     3.613693
      pz      :     1.564481  p :     3.998612
      px      :     1.318770
      py      :     1.115361
      dz2     :     0.006926  d :     0.028580
      dxz     :     0.006192
      dyz     :     0.002781
      dx2y2   :     0.002724
      dxy     :     0.009958

  4 C s       :     3.226160  s :     3.226160
      pz      :     0.973605  p :     2.923517
      px      :     0.970441
      py      :     0.979472
      dz2     :     0.007949  d :     0.037118
      dxz     :     0.010334
      dyz     :     0.003839
      dx2y2   :     0.004720
      dxy     :     0.010277

  5 C s       :     3.181822  s :     3.181822
      pz      :     1.012251  p :     2.750840
      px      :     0.908442
      py      :     0.830147
      dz2     :     0.011296  d :     0.056463
      dxz     :     0.011889
      dyz     :     0.008521
      dx2y2   :     0.007564
      dxy     :     0.017193

  6 C s       :     3.292550  s :     3.292550
      pz      :     0.971164  p :     3.006881
      px      :     1.016848
      py      :     1.018869
      dz2     :     0.007650  d :     0.038418
      dxz     :     0.010155
      dyz     :     0.005336
      dx2y2   :     0.004507
      dxy     :     0.010770

  7 C s       :     2.998448  s :     2.998448
      pz      :     0.735471  p :     2.317936
      px      :     0.811554
      py      :     0.770911
      dz2     :     0.017799  d :     0.119488
      dxz     :     0.017201
      dyz     :     0.022607
      dx2y2   :     0.026049
      dxy     :     0.035832

  8 C s       :     3.318041  s :     3.318041
      pz      :     1.100853  p :     3.116510
      px      :     1.045284
      py      :     0.970373
      dz2     :     0.004580  d :     0.031474
      dxz     :     0.007855
      dyz     :     0.006070
      dx2y2   :     0.004682
      dxy     :     0.008288

  9 H s       :     0.853873  s :     0.853873
      pz      :     0.002352  p :     0.011671
      px      :     0.004029
      py      :     0.005290

 10 H s       :     0.866635  s :     0.866635
      pz      :     0.005409  p :     0.011432
      px      :     0.003474
      py      :     0.002550

 11 H s       :     0.855666  s :     0.855666
      pz      :     0.006025  p :     0.011167
      px      :     0.003219
      py      :     0.001923

 12 H s       :     0.837755  s :     0.837755
      pz      :     0.002743  p :     0.011776
      px      :     0.003951
      py      :     0.005082

 13 H s       :     0.839215  s :     0.839215
      pz      :     0.005243  p :     0.011572
      px      :     0.004017
      py      :     0.002312

 14 H s       :     0.711077  s :     0.711077
      pz      :     0.010646  p :     0.023424
      px      :     0.008771
      py      :     0.004007

 15 H s       :     0.710055  s :     0.710055
      pz      :     0.006403  p :     0.023489
      px      :     0.007469
      py      :     0.009617

 16 H s       :     0.834181  s :     0.834181
      pz      :     0.003145  p :     0.011699
      px      :     0.003755
      py      :     0.004800

 17 H s       :     0.837266  s :     0.837266
      pz      :     0.004139  p :     0.011854
      px      :     0.005308
      py      :     0.002407

 18 H s       :     0.837185  s :     0.837185
      pz      :     0.005973  p :     0.011683
      px      :     0.003006
      py      :     0.002704

 19 H s       :     0.591807  s :     0.591807
      pz      :     0.007781  p :     0.037011
      px      :     0.013809
      py      :     0.015421


------------------------
MULLIKEN OVERLAP CHARGES
------------------------
B(  0-S ,  4-C ) :  -0.1346 B(  0-S ,  6-C ) :   0.5245 B(  0-S ,  8-C ) :   0.5026 
B(  0-S , 12-H ) :  -0.0729 B(  0-S , 13-H ) :  -0.0989 B(  0-S , 16-H ) :  -0.1052 
B(  0-S , 17-H ) :  -0.0651 B(  0-S , 18-H ) :  -0.0877 B(  1-O ,  2-O ) :  -0.1608 
B(  1-O ,  5-C ) :  -0.1503 B(  1-O ,  7-C ) :   0.5898 B(  1-O , 19-H ) :   0.5582 
B(  2-O ,  5-C ) :  -0.1613 B(  2-O ,  7-C ) :   1.2225 B(  3-N ,  4-C ) :  -0.0931 
B(  3-N ,  5-C ) :   0.5927 B(  3-N ,  7-C ) :  -0.0926 B(  3-N , 11-H ) :  -0.1046 
B(  3-N , 14-H ) :   0.6836 B(  3-N , 15-H ) :   0.6814 B(  4-C ,  5-C ) :   0.6992 
B(  4-C ,  6-C ) :   0.6687 B(  4-C ,  9-H ) :   0.7874 B(  4-C , 10-H ) :   0.7320 
B(  4-C , 11-H ) :  -0.0704 B(  4-C , 12-H ) :  -0.0613 B(  4-C , 13-H ) :  -0.0695 
B(  5-C ,  6-C ) :  -0.0786 B(  5-C ,  7-C ) :   0.5777 B(  5-C ,  9-H ) :  -0.0642 
B(  5-C , 10-H ) :  -0.0719 B(  5-C , 11-H ) :   0.7941 B(  5-C , 14-H ) :  -0.0705 
B(  5-C , 15-H ) :  -0.0584 B(  6-C ,  8-C ) :  -0.0523 B(  6-C ,  9-H ) :  -0.0761 
B(  6-C , 10-H ) :  -0.0562 B(  6-C , 12-H ) :   0.7598 B(  6-C , 13-H ) :   0.7550 
B(  7-C , 11-H ) :  -0.1020 B(  8-C , 16-H ) :   0.7716 B(  8-C , 17-H ) :   0.7623 
B(  8-C , 18-H ) :   0.7612 B(  9-H , 10-H ) :  -0.0683 B( 12-H , 13-H ) :  -0.0527 
B( 14-H , 15-H ) :  -0.0573 B( 16-H , 17-H ) :  -0.0544 B( 16-H , 18-H ) :  -0.0678 



                     *******************************
                     * LOEWDIN POPULATION ANALYSIS *
                     *******************************

----------------------
LOEWDIN ATOMIC CHARGES
----------------------
   0 S :    0.080492
   1 O :   -0.161175
   2 O :   -0.296662
   3 N :   -0.291232
   4 C :   -0.121517
   5 C :   -0.034457
   6 C :   -0.219679
   7 C :    0.170102
   8 C :   -0.302343
   9 H :    0.084102
  10 H :    0.082531
  11 H :    0.077557
  12 H :    0.091322
  13 H :    0.085253
  14 H :    0.139211
  15 H :    0.139414
  16 H :    0.081022
  17 H :    0.094733
  18 H :    0.084707
  19 H :    0.216617

-------------------------------
LOEWDIN REDUCED ORBITAL CHARGES
-------------------------------
  0 S s       :     5.621624  s :     5.621624
      pz      :     3.453273  p :    10.218564
      px      :     3.405705
      py      :     3.359587
      dz2     :     0.015348  d :     0.079319
      dxz     :     0.018294
      dyz     :     0.011675
      dx2y2   :     0.011233
      dxy     :     0.022769

  1 O s       :     3.476093  s :     3.476093
      pz      :     1.700788  p :     4.639632
      px      :     1.638808
      py      :     1.300035
      dz2     :     0.006573  d :     0.045451
      dxz     :     0.003657
      dyz     :     0.010486
      dx2y2   :     0.008316
      dxy     :     0.016418

  2 O s       :     3.561076  s :     3.561076
      pz      :     1.455845  p :     4.683685
      px      :     1.469551
      py      :     1.758289
      dz2     :     0.007800  d :     0.051901
      dxz     :     0.017837
      dyz     :     0.003538
      dx2y2   :     0.013429
      dxy     :     0.009297

  3 N s       :     3.204473  s :     3.204473
      pz      :     1.545116  p :     4.031289
      px      :     1.334359
      py      :     1.151814
      dz2     :     0.010732  d :     0.055469
      dxz     :     0.010821
      dyz     :     0.005017
      dx2y2   :     0.007837
      dxy     :     0.021062

  4 C s       :     2.900254  s :     2.900254
      pz      :     1.043643  p :     3.140038
      px      :     1.039617
      py      :     1.056779
      dz2     :     0.016836  d :     0.081224
      dxz     :     0.023026
      dyz     :     0.008110
      dx2y2   :     0.010107
      dxy     :     0.023145

  5 C s       :     2.878286  s :     2.878286
      pz      :     1.070066  p :     3.029960
      px      :     1.007765
      py      :     0.952128
      dz2     :     0.024297  d :     0.126211
      dxz     :     0.027027
      dyz     :     0.017650
      dx2y2   :     0.015989
      dxy     :     0.041248

  6 C s       :     2.943854  s :     2.943854
      pz      :     1.047002  p :     3.194043
      px      :     1.069184
      py      :     1.077857
      dz2     :     0.016404  d :     0.081781
      dxz     :     0.021591
      dyz     :     0.011360
      dx2y2   :     0.008902
      dxy     :     0.023523

  7 C s       :     2.862466  s :     2.862466
      pz      :     0.812373  p :     2.687724
      px      :     0.962554
      py      :     0.912797
      dz2     :     0.037374  d :     0.279708
      dxz     :     0.041209
      dyz     :     0.053937
      dx2y2   :     0.060608
      dxy     :     0.086580

  8 C s       :     2.965283  s :     2.965283
      pz      :     1.126312  p :     3.273617
      px      :     1.092454
      py      :     1.054851
      dz2     :     0.009232  d :     0.063443
      dxz     :     0.014192
      dyz     :     0.011899
      dx2y2   :     0.009797
      dxy     :     0.018323

  9 H s       :     0.876162  s :     0.876162
      pz      :     0.007030  p :     0.039736
      px      :     0.013637
      py      :     0.019069

 10 H s       :     0.878144  s :     0.878144
      pz      :     0.019848  p :     0.039326
      px      :     0.011460
      py      :     0.008018

 11 H s       :     0.880941  s :     0.880941
      pz      :     0.022421  p :     0.041502
      px      :     0.012086
      py      :     0.006995

 12 H s       :     0.867876  s :     0.867876
      pz      :     0.008402  p :     0.040802
      px      :     0.013984
      py      :     0.018416

 13 H s       :     0.874024  s :     0.874024
      pz      :     0.019696  p :     0.040723
      px      :     0.013414
      py      :     0.007613

 14 H s       :     0.782675  s :     0.782675
      pz      :     0.038787  p :     0.078114
      px      :     0.028180
      py      :     0.011146

 15 H s       :     0.781854  s :     0.781854
      pz      :     0.020080  p :     0.078731
      px      :     0.025734
      py      :     0.032917

 16 H s       :     0.877650  s :     0.877650
      pz      :     0.010755  p :     0.041328
      px      :     0.012592
      py      :     0.017981

 17 H s       :     0.864749  s :     0.864749
      pz      :     0.014506  p :     0.040518
      px      :     0.019032
      py      :     0.006980

 18 H s       :     0.874307  s :     0.874307
      pz      :     0.022107  p :     0.040986
      px      :     0.010051
      py      :     0.008828

 19 H s       :     0.670208  s :     0.670208
      pz      :     0.024000  p :     0.113175
      px      :     0.043570
      py      :     0.045605


---------------------------------
LOEWDIN BOND ORDERS (THRESH 0.050000)
---------------------------------
B(  0-S ,  4-C ) :   0.0556 B(  0-S ,  6-C ) :   1.1327 B(  0-S ,  8-C ) :   1.1604 
B(  1-O ,  2-O ) :   0.1994 B(  1-O ,  5-C ) :   0.0635 B(  1-O ,  7-C ) :   1.4030 
B(  1-O , 19-H ) :   0.9722 B(  2-O ,  5-C ) :   0.0832 B(  2-O ,  7-C ) :   2.1755 
B(  3-N ,  4-C ) :   0.0526 B(  3-N ,  5-C ) :   1.1302 B(  3-N ,  7-C ) :   0.0613 
B(  3-N , 14-H ) :   0.9838 B(  3-N , 15-H ) :   0.9821 B(  4-C ,  5-C ) :   1.0148 
B(  4-C ,  6-C ) :   1.0653 B(  4-C ,  7-C ) :   0.0527 B(  4-C ,  9-H ) :   0.9231 
B(  4-C , 10-H ) :   0.9216 B(  5-C ,  7-C ) :   0.9843 B(  5-C , 11-H ) :   0.9009 
B(  6-C , 12-H ) :   0.9330 B(  6-C , 13-H ) :   0.9337 B(  7-C , 19-H ) :   0.0520 
B(  8-C , 16-H ) :   0.9614 B(  8-C , 17-H ) :   0.9579 B(  8-C , 18-H ) :   0.9605 


------------------------------------------
LOEWDIN REDUCED ORBITAL POPULATIONS PER MO
-------------------------------------------
THRESHOLD FOR PRINTING IS 0.1%%
                      0         1         2         3         4         5   
                 -88.83927 -19.18682 -19.13859 -14.30092 -10.31740 -10.21385
                   2.00000   2.00000   2.00000   2.00000   2.00000   2.00000
                  --------  --------  --------  --------  --------  --------
 0 S  s             100.0       0.0       0.0       0.0       0.0       0.0
 1 O  s               0.0      99.9       0.0       0.0       0.0       0.0
 1 O  py              0.0       0.0       0.0       0.0       0.1       0.0
 2 O  s               0.0       0.0      99.8       0.0       0.1       0.0
 2 O  px              0.0       0.0       0.0       0.0       0.3       0.0
 2 O  dxz             0.0       0.0       0.0       0.0       0.1       0.0
 3 N  s               0.0       0.0       0.0      99.7       0.0       0.0
 3 N  py              0.0       0.0       0.0       0.0       0.0       0.1
 5 C  s               0.0       0.0       0.0       0.0       0.0      99.4
 7 C  s               0.0       0.0       0.0       0.0      99.0       0.0

                      6         7         8         9        10        11   
                 -10.19624 -10.18645 -10.17964  -7.91564  -5.87992  -5.87627
                   2.00000   2.00000   2.00000   2.00000   2.00000   2.00000
                  --------  --------  --------  --------  --------  --------
 0 S  s               0.0       0.0       0.0      99.6       0.0       0.0
 0 S  pz              0.0       0.0       0.0       0.0      32.2      27.4
 0 S  px              0.0       0.0       0.0       0.0      52.5       0.2
 0 S  py              0.0       0.0       0.0       0.0      15.3      72.4
 4 C  s               0.0       0.0      99.5       0.0       0.0       0.0
 6 C  s              99.6       0.0       0.0       0.0       0.0       0.0
 6 C  pz              0.0       0.0       0.0       0.1       0.0       0.0
 8 C  s               0.0      99.6       0.0       0.0       0.0       0.0
 8 C  py              0.0       0.0       0.0       0.1       0.0       0.0

                     12        13        14        15        16        17   
                  -5.86982  -1.09345  -1.00852  -0.88158  -0.80314  -0.74250
                   2.00000   2.00000   2.00000   2.00000   2.00000   2.00000
                  --------  --------  --------  --------  --------  --------
 0 S  s               0.0       0.0       0.0       0.2      24.3      13.0
 0 S  pz             40.4       0.0       0.0       0.0       1.1       0.2
 0 S  px             47.2       0.0       0.0       0.1       0.2       1.5
 0 S  py             12.3       0.0       0.0       0.0       1.9       1.1
 0 S  dxz             0.0       0.0       0.0       0.0       0.1       0.0
 0 S  dxy             0.0       0.0       0.0       0.0       0.0       0.1
 1 O  s               0.0      37.2      24.0       0.1       0.0       0.3
 1 O  pz              0.0       0.8       0.1       0.0       0.0       0.0
 1 O  px              0.0       1.0       0.2       0.1       0.0       0.2
 1 O  py              0.0       0.8       0.1       0.2       0.0       1.1
 2 O  s               0.0      18.4      37.5       1.1       0.0       0.3
 2 O  pz              0.0       0.9       0.6       0.0       0.0       0.0
 2 O  px              0.0       2.1       2.0       0.0       0.0       0.1
[...]
 7 C  dxy             0.0       0.0       0.3       0.8       0.8
 8 C  pz              6.9       0.0       0.0       0.0       0.0
 8 C  px              2.6       0.1       0.0       0.0       0.0
 8 C  py              1.7       0.1       0.0       0.0       0.0
 8 C  dz2             0.1       0.2       0.0       0.0       0.0
 8 C  dxz            20.1       0.0       0.1       0.0       0.0
 8 C  dyz             0.5       0.1       0.0       0.0       0.0
 8 C  dx2y2           2.9       0.1       0.0       0.0       0.0
 9 H  s               0.1       1.1       0.2       0.0       3.8
 9 H  pz              0.0       0.2       0.0       0.0       0.2
 9 H  px              0.1       1.5       0.0       0.0       4.0
 9 H  py              0.2       2.9       1.3       0.0      10.4
10 H  s               0.0       1.4       0.4       0.5       2.8
10 H  pz              0.1       4.2       2.1       1.4       7.3
10 H  px              0.1       1.1       0.0       0.9       1.9
10 H  py              0.0       0.4       0.1       0.2       0.4
11 H  s               0.0       0.1       2.9       0.1       1.9
11 H  pz              0.1       0.3       8.9       0.2       6.4
11 H  px              0.0       0.1       3.0       0.7       1.1
11 H  py              0.0       0.0       1.3       0.0       0.3
12 H  s               0.0       0.1       3.8       0.0       1.6
12 H  pz              0.0       0.0       0.4       0.0       0.5
12 H  px              0.1       0.2       4.2       0.0       0.8
12 H  py              0.1       0.0      10.5       0.0       4.8
13 H  s               0.1       0.6       3.2       0.0       0.9
13 H  pz              0.1       2.3       8.7       0.0       1.7
13 H  px              0.0       0.6       3.9       0.0       1.2
13 H  py              0.0       0.0       0.0       0.0       0.1
14 H  s               0.0       0.2       0.1       7.2       0.0
14 H  pz              0.0       0.5       0.4      11.9       0.0
14 H  px              0.0       0.2       0.0       6.3       0.0
14 H  py              0.0       0.1       0.2       0.0       0.0
15 H  s               0.0       0.1       0.0       7.9       0.0
15 H  pz              0.0       0.0       0.2       1.8       0.0
15 H  px              0.1       0.3       0.1       8.1       0.2
15 H  py              0.1       0.1       0.0      10.6       0.0
16 H  s               1.2       0.1       0.0       0.0       0.0
16 H  pz              0.5       0.0       0.0       0.0       0.0
16 H  px              1.1       0.1       0.1       0.0       0.0
16 H  py              3.4       0.4       0.0       0.1       0.0
17 H  s               7.8       0.0       0.0       0.0       0.0
17 H  pz             15.4       0.1       0.1       0.0       0.0
17 H  px             17.7       0.1       0.1       0.0       0.0
17 H  py              0.8       0.0       0.0       0.0       0.0
18 H  s               2.8       0.0       0.0       0.0       0.0
18 H  pz              9.0       0.1       0.0       0.0       0.0
18 H  px              2.8       0.0       0.0       0.0       0.0
18 H  py              0.1       0.0       0.0       0.0       0.0
19 H  s               0.0      11.5       1.1       0.2       2.1
19 H  pz              0.0       3.1       0.3       0.0       0.3
19 H  px              0.0      13.7       1.1       0.0       1.7
19 H  py              0.0      12.4       1.3       0.6       2.1


                      *****************************
                      * MAYER POPULATION ANALYSIS *
                      *****************************

  NA   - Mulliken gross atomic population
  ZA   - Total nuclear charge
  QA   - Mulliken gross atomic charge
  VA   - Mayer's total valence
  BVA  - Mayer's bonded valence
  FA   - Mayer's free valence

  ATOM       NA         ZA         QA         VA         BVA        FA
  0 S     15.9934    16.0000     0.0066     1.9856     1.9856     0.0000
  1 O      8.4894     8.0000    -0.4894     2.0355     2.0355    -0.0000
  2 O      8.5113     8.0000    -0.5113     2.0240     2.0240     0.0000
  3 N      7.6346     7.0000    -0.6346     2.8164     2.8164    -0.0000
  4 C      6.1826     6.0000    -0.1826     3.8591     3.8591     0.0000
  5 C      6.0003     6.0000    -0.0003     3.8224     3.8224     0.0000
  6 C      6.3346     6.0000    -0.3346     3.8510     3.8510     0.0000
  7 C      5.4405     6.0000     0.5595     3.9383     3.9383     0.0000
  8 C      6.4617     6.0000    -0.4617     3.8584     3.8584     0.0000
  9 H      0.8677     1.0000     0.1323     0.9523     0.9523     0.0000
 10 H      0.8753     1.0000     0.1247     0.9545     0.9545     0.0000
 11 H      0.8733     1.0000     0.1267     0.9547     0.9547    -0.0000
 12 H      0.8501     1.0000     0.1499     0.9522     0.9522     0.0000
 13 H      0.8507     1.0000     0.1493     0.9384     0.9384     0.0000
 14 H      0.7324     1.0000     0.2676     0.9078     0.9078     0.0000
 15 H      0.7296     1.0000     0.2704     0.9087     0.9087     0.0000
 16 H      0.8447     1.0000     0.1553     0.9392     0.9392     0.0000
 17 H      0.8464     1.0000     0.1536     0.9459     0.9459     0.0000
 18 H      0.8493     1.0000     0.1507     0.9412     0.9412     0.0000
 19 H      0.6321     1.0000     0.3679     0.8790     0.8790     0.0000

  Mayer bond orders larger than 0.100000
B(  0-S ,  6-C ) :   0.9740 B(  0-S ,  8-C ) :   0.9809 B(  1-O ,  7-C ) :   1.1055 
B(  1-O , 19-H ) :   0.8261 B(  2-O ,  7-C ) :   1.8763 B(  3-N ,  5-C ) :   0.9943 
B(  3-N , 14-H ) :   0.8998 B(  3-N , 15-H ) :   0.8951 B(  4-C ,  5-C ) :   0.9740 
B(  4-C ,  6-C ) :   0.9870 B(  4-C ,  9-H ) :   0.9424 B(  4-C , 10-H ) :   0.9391 
B(  5-C ,  7-C ) :   0.9261 B(  5-C , 11-H ) :   0.9237 B(  6-C , 12-H ) :   0.9373 
B(  6-C , 13-H ) :   0.9403 B(  8-C , 16-H ) :   0.9487 B(  8-C , 17-H ) :   0.9527 
B(  8-C , 18-H ) :   0.9509 

-------
TIMINGS
-------

Total SCF time: 0 days 0 hours 0 min 29 sec 

Total time                  ....      29.936 sec
Sum of individual times     ....      28.047 sec  ( 93.7%)

SCF preparation             ....       0.512 sec  (  1.7%)
Fock matrix formation       ....      27.154 sec  ( 90.7%)
  Startup                   ....       0.005 sec  (  0.0% of F)
  Split-RI-J                ....       1.916 sec  (  7.1% of F)
  Chain of spheres X        ....      20.921 sec  ( 77.0% of F)
  XC integration            ....       3.684 sec  ( 13.6% of F)
    XC Preparation          ....       0.000 sec  (  0.0% of XC)
    Basis function eval.    ....       1.486 sec  ( 40.3% of XC)
    Density eval.           ....       0.785 sec  ( 21.3% of XC)
    XC-Functional eval.     ....       0.237 sec  (  6.4% of XC)
    XC-Potential eval.      ....       0.939 sec  ( 25.5% of XC)
  CPCM terms                ....       2.415 sec  (  8.9% of F)
Diagonalization             ....       0.000 sec  (  0.0%)
Density matrix formation    ....       0.017 sec  (  0.1%)
Total Energy calculation    ....       0.010 sec  (  0.0%)
Population analysis         ....       0.212 sec  (  0.7%)
Orbital Transformation      ....       0.021 sec  (  0.1%)
Orbital Orthonormalization  ....       0.000 sec  (  0.0%)
DIIS solution               ....       0.092 sec  (  0.3%)
  MO trafo                  ....       0.010 sec  ( 11.0 % of DIIS)
  Orb grad                  ....       0.000 sec  (  0.0 % of DIIS)
  Energy W gradient         ....       0.000 sec  (  0.0 % of DIIS)
  DIIS error                ....       0.018 sec  ( 19.0 % of DIIS)
  DIIS work                 ....       0.050 sec  ( 54.7 % of DIIS)
  Form Q                    ....       0.000 sec  (  0.0 % of DIIS)
  Form QpQm                 ....       0.000 sec  (  0.0 % of DIIS)
  Exp/Cayley                ....       0.000 sec  (  0.0 % of DIIS)
  Orb update                ....       0.000 sec  (  0.0 % of DIIS)
  Wake-sleep                ....       0.003 sec  (  3.6 % of DIIS)
SOSCF solution              ....       0.030 sec  (  0.1%)
  MO trafo                  ....       0.015 sec  ( 49.5 % of SOSCF)
  Orb grad                  ....       0.001 sec  (  2.9 % of SOSCF)
  Rot update                ....       0.001 sec  (  4.7 % of SOSCF)
  Step                      ....       0.011 sec  ( 35.8 % of SOSCF)
Finished LeanSCF after  30.1 sec

Maximum memory used throughout the entire LEANSCF-calculation: 29.9 MB


-------------------------------------------------------------------------------
                          DFT DISPERSION CORRECTION                            
                                                                               
                              DFTD3 V3.1  Rev 1                                
                          USING Becke-Johnson damping                          
-------------------------------------------------------------------------------
The B3LYP functional is recognized
Active option DFTDOPT                   ...         4   

molecular C6(AA) [au] = 3986.583880 


            DFT-D V3
 parameters
 s6 scaling factor         :     1.0000 
 a1 scaling factor         :     0.3981 
 s8 scaling factor         :     1.9889 
 a2 scaling factor         :     4.4211 
 ad hoc parameters k1-k3   :    16.0000     1.3333    -4.0000 

 Edisp/kcal,au: -21.014746792534  -0.033489127128 
 E6   /kcal   :  -9.951450412 
 E8   /kcal   : -11.063296381 
 % E8         :  52.645394635 

-------------------------   ----------------
Dispersion correction           -0.033489127
-------------------------   ----------------


-------------------------   --------------------
FINAL SINGLE POINT ENERGY      -800.312305127181
-------------------------   --------------------

                                *** OPTIMIZATION RUN DONE ***



           ************************************************************
           *        Program running with 2 parallel MPI-processes     *
           *              working on a common directory               *
           ************************************************************

------------------------------------------------------------------------------
                              ORCA PROPERTY CALCULATIONS
------------------------------------------------------------------------------

GBWName                                 ... /kaggle/working/Met-1/Met_InterFrag.gbw
Number of atoms                         ...     20
Number of basis functions               ...    185
Max core memory                         ...   3000 MB

Electric properties:
Dipole moment                           ... YES
Quadrupole moment                       ...  NO
Static polarizability (Dipole/Dipole)   ...  NO
Static polarizability (Dipole/Quad.)    ...  NO
Static polarizability (Quad./Quad.)     ...  NO
Static polarizability (Velocity)        ...  NO
Static hyperpolarizability              ...  NO

Atomic electric properties:
Dipole moment                           ...  NO
Quadrupole moment                       ...  NO
Static polarizability                   ...  NO

Choice of electric origin               ... Center of mass
Position of electric origin             ...     0.443719     0.151972     0.126858

General magnetic properties:
Magnetizability                         ...  NO

EPR properties:
g-Tensor (aka g-matrix)                 ...  NO
Zero-Field splitting spin-orbit         ...  NO
Zero-field splitting spin-spin          ...  NO
Hyperfine couplings                     ...  NO (   0 nuclei)
Quadrupole couplings                    ...  NO (   0 nuclei)
Contact density                         ...  NO (   0 nuclei)

NMR properties:
Chemical shifts                         ...  NO (   0 nuclei)
Spin-rotation constants                 ...  NO (   0 nuclei)
Spin-spin couplings                     ...  NO (   0 nuclei,    0 pairs)

Choice of magnetic origin               ... GIAO
Position of magnetic origin             ...     0.000000     0.000000     0.000000

Properties with geometric perturbations:
SCF Hessian                             ...  NO
IR spectrum                             ...  NO
VCD spectrum                            ...  NO
X-ray spectroscopy properties:
SCF XES/XAS/RIXS spectra                ...  NO

SCF SOC stabilization energy            ...  NO
Diagonal Born-Oppenheimer correction    ...  NO

-------------
DIPOLE MOMENT
-------------

Method             : SCF
Type of density    : Electron Density
Multiplicity       :   1
Irrep              :   0
Energy             :  -800.2788160000527569 Eh
Basis              : AO
                                X                 Y                 Z
Electronic contribution:     -5.388925997       6.220595397       1.405936699
Nuclear contribution   :      6.472406101      -6.614026579      -0.990981550
                        -----------------------------------------
Total Dipole Moment    :      1.083480104      -0.393431182       0.414955149
                        -----------------------------------------
Magnitude (a.u.)       :      1.225114283
Magnitude (Debye)      :      3.113993035



--------------------
Rotational spectrum 
--------------------
 
Rotational constants in cm-1:             0.077353             0.025580             0.021921 
Rotational constants in MHz :          2318.977933           766.872644           657.181735 

Dipole components along the rotational axes: 
x,y,z [a.u.] :    -1.087146    -0.442787     0.350655 
x,y,z [Debye]:    -2.763305    -1.125475     0.891294 

 

Dipole moment calculation done in   0.0 sec 

Maximum memory used throughout the entire PROP-calculation: 10.8 MB

--------------------------------
SUGGESTED CITATIONS FOR THIS RUN
--------------------------------

Below you find a list of papers that are relevant to this ORCA run
We neither can nor want to force you to cite these papers, but we appreciate if you do
You receive ORCA, which is the product of decades of hard work by many enthusiastic individuals, for free
The only thing we kindly ask in return is that you cite our papers,
We deeply appreciate it, if you show your appreciation for ORCA by not just citing the generic ORCA reference.

Please note that relegating all ORCA citations to the supporting information does *not* help us.
SI sections are not indexed - citations you put there will not count into any citation statistics
But we need these citations in order to attract the funding resources that allow us to do what we are doing

Therefore, if you are a happy ORCA user, please consider citing a few of the papers listed below in the main body of your paper

In addition to the list printed below, the program has created the file /kaggle/working/Met-1/Met_InterFrag.bibtex that contains the list in bibtex format
You can import this file easily into all common literature databanks and citation aid programs

It goes without saying that in many instances, there are alternative algorithms to achieve similar
results as the ones you have gotten from ORCA. It is, of course, also the case that in some instances
ORCA just re-implements algorithms worked out by others. We are fully aware of that and we are also
fully appreciative of our colleagues work. Hence this citation list should not be read as indicating
that the listed papers, which are focused on our own work, are the only ones worth citing. It simply
meant to make it easier for users to cite ORCA specific papers. It is not a substitute for doing your
own literature research and citing the relevant literature in a scientifically appropriate manner.

List of essential papers. We consider these as the minimum necessary citations

  1. Neese, F.
     Software update: the ORCA program system, version 6.0
     WIRES Comput. Molec. Sci. 2025 15(1), e70019
     doi.org/10.1002/wcms.70019

List of papers to cite with high priority. The work reported in these papers was absolutely
necessary for this run to complete.
Our perspective: the developers of density functionals and basis sets usually get cited in chemistry papers
Good! But without the algorithms to do something with them, the functionals or basis sets would not do anything.
Hence, in our opinion, the algorithm design and method developments papers are equally worthy of getting cited

  1. Neese, F.
     An improvement of the resolution of the identity approximation for the formation of the Coulomb matrix
     J. Comp. Chem. 2003 24(14), 1740-1747
     doi.org/10.1002/jcc.10318
  2. Neese, F.; Wennmohs, F.; Hansen, A.; Becker, U.
     Efficient, approximate and parallel Hartree-Fock and hybrid DFT calculations. A 'chain-of-spheres' algorithm for the Hartree-Fock exchange
     Chem. Phys. 2009 356(1-3), 98-109
     doi.org/10.1016/j.chemphys.2008.10.036
  3. Grimme, S.; Antony, J.; Ehrlich, S.; Krieg, H.
     A consistent and accurate ab initio parametrization of density functional dispersion correction (DFT-D) for the 94 elements H-Pu
     J. Chem. Phys. 2010 132 , 154104
     doi.org/10.1063/1.3382344
  4. Grimme, S.; Ehrlich, S.; Goerigk, L.
     Effect of the damping function in dispersion corrected density functional theory
     J. Comput. Chem. 2011 32(7), 1456-1465
     doi.org/10.1002/jcc.21759
  5. Garcia-Rates, M.; Neese, F.
     Effect of the Solute Cavity on the Solvation Energy and its Derivatives within the Framework of the Gaussian Charge Scheme
     J. Comput. Chem. 2020 41 , 922-939
     doi.org/10.1002/jcc.26139
  6. Helmich-Paris, B.; de Souza, B.; Neese, F.; Izsák, R.
     An improved chain of spheres for exchange algorithm
     J. Chem. Phys. 2021 155(10), 104109
     doi.org/10.1063/5.0058766
  7. Neese, F.
     The SHARK Integral Generation and Digestion System
     J. Comp. Chem. 2022 44(3), 381
     doi.org/10.1002/jcc.26942

List of suggested additional citations. These are papers that are important in the 'surrounding' of 
of this run, or papers that preceded the highly important papers. If you like your results we are grateful for a citation.

  1. Izsak, R.; Neese, F.
     An overlap fitted chain of spheres exchange method
     J. Chem. Phys. 2011 135 , 144105
     doi.org/10.1063/1.3646921
  2. Izsak, R.; Hansen, A.; Neese, F.
     The resolution of identity and chain of spheres approximations for the LPNO-CCSD singles Fock term
     Molec. Phys. 2012 110 , 2413-2417
     doi.org/10.1080/00268976.2012.687466
  3. Neese, F.
     The ORCA program system
     WIRES Comput. Molec. Sci. 2012 2(1), 73-78
     doi.org/10.1002/wcms.81
  4. Izsak, R.; Neese, F.; Klopper, W.
     Robust fitting techniques in the chain of spheres approximation to the Fock exchange: The role of the complementary space
     J. Chem. Phys. 2013 139 , 
     doi.org/10.1063/1.4819264
  5. Neese, F.
     Software update: the ORCA program system, version 4.0
     WIRES Comput. Molec. Sci. 2018 8(1), 1-6
     doi.org/10.1002/wcms.1327
  6. Neese, F.; Wennmohs, F.; Becker, U.; Riplinger, C.
     The ORCA quantum chemistry program package
     J. Chem. Phys. 2020 152(22), 224108
     doi.org/10.1063/5.0004608
  7. Neese, F.
     Software update: The ORCA program system—Version 5.0
     WIRES Comput. Molec. Sci. 2022 12(1), e1606
     doi.org/10.1002/wcms.1606

List of optional additional citations

  1. Neese, F.
     Approximate second-order SCF convergence for spin unrestricted wavefunctions
     Chem. Phys. Lett. 2000 325(1-3), 93-98
     doi.org/10.1016/s0009-2614(00)00662-x

Timings for individual modules:

Sum of individual times          ...      691.889 sec (=  11.531 min)
Startup calculation              ...       28.472 sec (=   0.475 min)   4.1 %
SCF iterations                   ...      414.793 sec (=   6.913 min)  60.0 %
Property calculations            ...        0.426 sec (=   0.007 min)   0.1 %
SCF Gradient evaluation          ...      248.129 sec (=   4.135 min)  35.9 %
Geometry relaxation              ...        0.069 sec (=   0.001 min)   0.0 %
                             ****ORCA TERMINATED NORMALLY****
TOTAL RUN TIME: 0 days 0 hours 11 minutes 37 seconds 441 msec
