
                                 *****************
                                 * O   R   C   A *
                                 *****************

                                            #,                                       
                                            ###                                      
                                            ####                                     
                                            #####                                    
                                            ######                                   
                                           ########,                                 
                                     ,,################,,,,,                         
                               ,,#################################,,                 
                          ,,##########################################,,             
                       ,#########################################, ''#####,          
                    ,#############################################,,   '####,        
                  ,##################################################,,,,####,       
                ,###########''''           ''''###############################       
              ,#####''   ,,,,##########,,,,          '''####'''          '####       
            ,##' ,,,,###########################,,,                        '##       
           ' ,,###''''                  '''############,,,                           
         ,,##''                                '''############,,,,        ,,,,,,###''
      ,#''                                            '''#######################'''  
     '                                                          ''''####''''         
             ,#######,   #######,   ,#######,      ##                                
            ,#'     '#,  ##    ##  ,#'     '#,    #''#        ,####,    ,#,          
            ##       ##  ##   ,#'  ##            #'  '#       #'       ,# #          
            ##       ##  #######   ##           ,######,      #####,      #          
            '#,     ,#'  ##    ##  '#,     ,#' ,#      #,     #,   #      #          
             '#######'   ##     ##  '#######'  #'      '#     '####' #    #          



                #########################################################
                #                        -***-                          #
                #          Department of theory and spectroscopy        #
                #                                                       #
                #                      Frank Neese                      #
                #                                                       #
                #     Directorship, Architecture, Infrastructure        #
                #                    SHARK, DRIVERS                     #
                #        Core code/Algorithms in most modules           #
                #                                                       #
                #        Max Planck Institute fuer Kohlenforschung      #
                #                Kaiser Wilhelm Platz 1                 #
                #                 D-45470 Muelheim/Ruhr                 #
                #                      Germany                          #
                #                                                       #
                #                  All rights reserved                  #
                #                        -***-                          #
                #########################################################


                         Program Version 6.1.1  -  RELEASE   -
                                (GIT: $487d211c$)
                          ($2025-11-21 10:33:24 +0100$)
                                                                         
                                  - NO-DMRG VERSION -                    
                                                                         


 With contributions from (in alphabetic order):
[Max-Planck-Institut fuer Kohlenforschung]                               
  Daniel Aravena         : Magnetic Suceptibility                        
  Michael Atanasov       : Ab Initio Ligand Field Theory (pilot matlab implementation)
  Alexander A. Auer      : GIAO ZORA, VPT2 properties, NMR spectrum      
  Ute Becker             : All parallelization in ORCA, NUMFREQ, NUMCALC 
  Giovanni Bistoni       : ED, misc. LED, open-shell LED, HFLD           
  Dmytro Bykov           : pre 5.0 version of the SCF Hessian            
  Marcos Casanova-Páez   : Triplet and SCS-CIS(D). UHF-(DLPNO)-IP/EA/STEOM-CCSD. UHF-CVS-IP/STEOM-CCSD   
  Vijay G. Chilkuri      : MRCI spin determinant printing, contributions to CSF-ICE 
  Pauline Colinet        : FMM embedding                                 
  Dipayan Datta          : RHF DLPNO-CCSD density                        
  Achintya Kumar Dutta   : EOM-CC, STEOM-CC                              
  Nicolas Foglia         : Exact transition moments, OPA infrastructure, MCD improvements    
  Dmitry Ganyushin       : Spin-Orbit,Spin-Spin,Magnetic field MRCI      
  Miquel Garcia-Rates    : C-PCM and meta-GGA Hessian, CCSD/C-PCM, Gaussian charge scheme 
  Tiago L. C. Gouveia    : GS-ROHF, GS-ROCIS                             
  Yang Guo               : DLPNO-NEVPT2, F12-NEVPT2, CIM, IAO-localization        
  Andreas Hansen         : Spin unrestricted coupled pair/coupled cluster methods 
  Ingolf Harden          : AUTO-CI MPn and infrastructure                
  Benjamin Helmich-Paris : MC-RPA, TRAH-(SCF,CASSCF), AVAS, COSX integrals, SCF dyn. polar., MC-PDFT, srDFT 
  Lee Huntington         : MR-EOM, pCC                                   
  Robert Izsak           : Overlap fitted RIJCOSX, COSX-SCS-MP3, EOM     
  Riya Kayal             : Wick's Theorem for AUTO-CI, AUTO-CI UHF-CCSDT 
  Emily Kempfer          : AUTO-CI RHF CISDT and CCSDT, approximate NEVPT4
  Christian Kollmar      : KDIIS, OOCD, Brueckner-CCSD(T), CCSD density, CASPT2, CASPT2-K, improved NEVPT2 
  Axel Koslowski         : Symmetry handling                             
  Simone Kossmann        : meta-GGA functionals, TD-DFT gradient, OOMP2, (MP2 Hessian; deprecated post 5.0) 
  Lucas Lang             : DCDCAS, Hyperfine gauge corrections, ICE-SOC+SSC
  Marvin Lechner         : AUTO-CI (C++ implementation), FIC-MRCC        
  Spencer Leger          : CASSCF response                               
  Dagmar Lenk            : GEPOL surface, SMD, ORCA-2-JSON               
  Dimitrios Liakos       : Extrapolation schemes; Compound Job, Property file
  Dimitrios Manganas     : Further ROCIS development; embedding schemes. LFT, Crystal Embedding 
  Dimitrios Pantazis     : SARC Basis sets                               
  Anastasios Papadopoulos: AUTO-CI, single reference methods and gradients 
  Taras Petrenko         : pre 6.0 DFT Hessian and TD-DFT gradient,  ECA, NRVS 
  Petra Pikulova         : Analytic Raman intensities                    
  Peter Pinski           : DLPNO-MP2, DLPNO-MP2 Gradient                 
  Shashank Vittal Rao    : ES-AILFT, MagRelax                            
  Christoph Reimann      : Effective Core Potentials                     
  Marius Retegan         : Local ZFS, SOC                                
  Christoph Riplinger    : Optimizer, TS searches, QM/MM, DLPNO-CCSD(T), (RO)-DLPNO pert. Triples 
  Michael Roemelt        : Original ROCIS implementation, recursive CI coupling coefficients
  Masaaki Saitow         : Open-shell DLPNO-CCSD energy and density      
  Barbara Sandhoefer     : DKH picture change effects                    
  Yorick L. A. Schmerwitz: GMF and freeze-and-release deltaSCF, NEB S-IDPP initial path                    
  Kantharuban Sivalingam : CASSCF convergence/infrastructure, NEVPT2, NEVPT3, NEVPT4(SD), FIC-MRCI and CEPA variants
  Bernardo de Souza      : ESD, SOC TD-DFT                               
  Georgi L. Stoychev     : AutoAux, RI-MP2 NMR, DLPNO-MP2 response, X2C  
  Van Anh Tran           : RI-MP2 g-tensors                              
  Willem Van den Heuvel  : Paramagnetic NMR                              
  Zikuan Wang            : NOTCH, Electric field optimization            
  Frank Wennmohs         : Technical directorship and infrastructure     
  Hang Xu                : AUTO-CI-Response properties                   
                                                                         
[FACCTs GmbH]                                                            
  Markus Bursch, Nicolas Foglia, Miquel Garcia-Rates, Ingolf Harden, Hagen Neugebauer, Anastasios Papadopoulos, 
  Christoph Riplinger, Bernardo de Souza, Georgi L. Stoychev                                                    
                                                                 
  APM, various basis sets, CI-OPT, improved COSX, DLPNO-Multilevel,           
  DOCKER, DRACO, updates on ESD, Fragmentator, GOAT, IRC, LR-CPCM, L-BFGS, MBIS, meta-GGA TD-DFT gradient, ML-optimized integration grids, 
  MM, NACMEs, nearIR, NEB, NEB-TS, NL-DFT gradient (VV10), 2- and 3-layer-ONIOM, interface openCOSMO-RS, QMMM,   
  Crystal-QMMM, RESP, rigid body optimization, SF, symmetry and pop. for TD-DFT, various functionals, SOLVATOR                                   
                                                                         
[Other institutions]                                                     
  V. Asgeirsson          : NEB                                           
  Christoph Bannwarth    : sTDA-DFT, sTD-DFT, PBEh-3c, B97-3c, D3        
  Giovanni Bistoni       : ETS/NOCV, ADLD/ADEX, COVALED                  
  Martin Brehm           : Molecular dynamics                            
  Ronald Cardenas        : ETS/NOCV                                      
  Martina Colucci        : COVALED                                       
  Sebastian Ehlert       : rSCAN, r2SCAN, r2SCAN-3c, D4, dhf basis sets  
  Marvin Friede          : D4 for Fr, Ra, Ac-Lr                          
  Lars Goerigk           : TD-DFT with DH, B97 family of functionals     
  Stefan Grimme          : VdW corrections, initial TS optimization, DFT functionals, gCP, sTDA/sTD-DF 
  Waldemar Hujo          : DFT-NL                                        
  H. Jonsson             : NEB                                           
  Holger Kruse           : gCP                                           
  Marcel Mueller         : wB97X-3c, vDZP basis set                      
  Hagen Neugebauer       : wr2SCAN, Native XTB                           
  Gianluca Regni         : ADLD/ADEX                                     
  Tobias Risthaus        : pre 6.0 range-separated hybrid DFT and stability analysis
  Lukas Wittmann         : regularized MP2, r2SCAN double-hybrids, wr2SCAN        
                                                                         
We gratefully acknowledge several colleagues who have allowed us to      
interface, adapt or use parts of their codes:                            
  Ed Valeev, F. Pavosevic, A. Kumar             : LibInt (2-el integral package), F12 methods 
  Garnet Chan, S. Sharma, J. Yang, R. Olivares  : DMRG                   
  Ulf Ekstrom                                   : XCFun DFT Library      
  Mihaly Kallay                                 : mrcc  (arbitrary order and MRCC methods)
  Frank Weinhold                                : gennbo (NPA and NBO analysis)           
  Simon Mueller                                 : openCOSMO-RS                            
  Christopher J. Cramer and Donald G. Truhlar   : smd solvation model                     
  S Lehtola, MJT Oliveira, MAL Marques          : LibXC Library                           
  Liviu Ungur et al                             : ANISO software                          


 Your calculation uses the libint2 library for the computation of 2-el integrals
 For citations please refer to: http://libint.valeyev.net

 Your ORCA version has been built with support for libXC version: 7.0.0
 For citations please refer to: https://libxc.gitlab.io

 This ORCA versions uses:
   CBLAS   interface :  Fast vector & matrix operations
   LAPACKE interface :  Fast linear algebra routines
   SCALAPACK package :  Parallel linear algebra routines
   Shared memory     :  Shared parallel matrices
   BLAS/LAPACK       :  OpenBLAS 0.3.29  USE64BITINT DYNAMIC_ARCH NO_AFFINITY SkylakeX SINGLE_THREADED
        Core in use  :  SkylakeX
   Copyright (c) 2011-2014, The OpenBLAS Project


  ***********************************
  * Starting time: Tue Mar 24 19:03:05 2026
  * Host name:     821283020b77
  * Process ID:    54
  * Working dir.:  /kaggle/working
  ***********************************

NOTE: MaxCore=3000 MB was set to SCF,MP2,MDCI,CIPSI,MRCI,RASCI and CIS
      => If you want to overwrite this, your respective input block should be placed after the MaxCore statement
Your calculation utilizes the atom-pairwise dispersion correction
with the Becke-Johnson damping scheme (D3BJ)


Your calculation utilizes the SMD solvation module
Please cite in your paper:
Marenich, A. V.; Cramer, C. J.; Truhlar, D. G. J. Phys. Chem. B 2009, 113, 6378 

Warning: RI is on but no J-basis has been assigned. Assigning Def2/J (nothing to worry about!)
================================================================================

----- Orbital basis set information -----
Your calculation utilizes the basis: 6-31G(d,p)
   H-He, Li-Ne : W. J. Hehre, R. Ditchfield and J.A. Pople, J. Chem. Phys. 56, 2257 (1972).
                 Note: He and Ne are unpublished basis sets taken from the Gaussian program.
                 Note: Li and B from J. D. Dill and J. A. Pople, J. Chem. Phys. 62, 2921 (1975).
   Na - Ar     : M. M. Francl, W. J. Pietro, W. J. Hehre, J. S. Binkley, M. S. Gordon, 
                 D. J. DeFrees and J. A. Pople, J. Chem. Phys. 77, 3654 (1982).
   K - Zn      : V. A. Rassolov, J. A. Pople, M. A. Ratner, and T. L. Windus, J. Chem. Phys. 109, 1223 (1998).

----- AuxJ basis set information -----
Your calculation utilizes the auxiliary basis: def2/J
   H-Rn: F. Weigend, Phys. Chem. Chem. Phys. 8, 1057 (2006).
   Fr-Lr: K. Eichkorn, F. Weigend, O. Treutler, R. Ahlrichs; Theor. Chem. Acc. 97, 119 (1997).

================================================================================
                                        WARNINGS
                       Please study these warnings very carefully!
================================================================================


WARNING: Geometry Optimization
  ===> : Switching off AutoStart
         For restart on a previous wavefunction, please use MOREAD

================================================================================
                                       INPUT FILE
================================================================================
NAME = /kaggle/working/Phe-OMe-1/Phe-OMe_InterFrag.inp
|  1> 
|  2> !RKS B3LYP 6-31G(d,p) TightSCF Opt D3BJ
|  3>  
|  4> %pal nprocs 2 end
|  5> %maxcore 3000
|  6> 
|  7> %cpcm
|  8>   smd true
|  9>   SMDsolvent "WATER"
| 10>   end
| 11> 
| 12> %scf
| 13>   MaxIter 1000
| 14>   SOSCF Start 0.00033
| 15>   end
| 16> end
| 17> 
| 18> %output
| 19>   PrintLevel Normal
| 20>   Print[ P_OrbEn ] 2        # print ALL orbital energies (not just up to LUMO+9) :contentReference[oaicite:10]{index=10}
| 21>   XYZFile true              # writes basename.xyz (handy for reuse) :contentReference[oaicite:11]{index=11}
| 22>   end
| 23> 
| 24> *xyz 0 1
| 25> O       -3.769200000     -0.709100000      0.008900000
| 26> O        1.785400000     -1.433600000      1.271900000
| 27> O        3.394700000     -1.455100000     -0.325200000
| 28> N        3.809000000      1.234400000      0.146700000
| 29> C        1.505800000      1.166900000     -0.687800000
| 30> C        2.475100000      0.684100000      0.401100000
| 31> C        0.100200000      0.667000000     -0.501900000
| 32> C       -0.281100000     -0.536300000     -1.080700000
| 33> C       -0.799600000      1.414900000      0.246400000
| 34> C        2.615200000     -0.828800000      0.381800000
| 35> C       -1.585300000     -1.000000000     -0.908400000
| 36> C       -2.103900000      0.951300000      0.418800000
| 37> C       -2.496800000     -0.256300000     -0.158600000
| 38> C       -4.649500000      0.100600000      0.787000000
| 39> H        1.493100000      2.265200000     -0.716500000
| 40> H        1.862600000      0.855600000     -1.680000000
| 41> H        2.147000000      1.003800000      1.396800000
| 42> H        0.417500000     -1.123100000     -1.670400000
| 43> H       -0.501900000      2.355400000      0.701800000
| 44> H       -1.885800000     -1.940900000     -1.361300000
| 45> H       -2.759800000      1.578200000      1.013100000
| 46> H        4.434100000      0.980900000      0.911300000
| 47> H        3.762900000      2.252800000      0.145300000
| 48> H        1.886700000     -2.409300000      1.261200000
| 49> H       -5.617500000     -0.410300000      0.816300000
| 50> H       -4.817200000      1.076700000      0.319300000
| 51> H       -4.303900000      0.190400000      1.822400000
| 52> *
| 53> 
| 54>                          ****END OF INPUT****
================================================================================

                       *****************************
                       * Geometry Optimization Run *
                       *****************************

Geometry optimization settings:
Update method            Update   .... BFGS
Choice of coordinates    CoordSys .... (2022) Redundant Internals
Initial Hessian          InHess   .... Almloef's Model
Max. no of cycles        MaxIter  .... 81

Convergence Tolerances:
Energy Change            TolE     ....  5.0000e-06 Eh
Max. Gradient            TolMAXG  ....  3.0000e-04 Eh/bohr
RMS Gradient             TolRMSG  ....  1.0000e-04 Eh/bohr
Max. Displacement        TolMAXD  ....  4.0000e-03 bohr
RMS Displacement         TolRMSD  ....  2.0000e-03 bohr
Strict Convergence                .... False

------------------------------------------------------------------------------
                        ORCA OPTIMIZATION COORDINATE SETUP
------------------------------------------------------------------------------

The optimization will be done in redundant internal coordinates (2022)
Making redundant internal coordinates   ...  (2022 redundants) done
Evaluating the initial hessian          ...  (Almloef) done
Evaluating the coordinates              ...  done
Calculating the B-matrix                .... done
Calculating the G-matrix                .... done
The number of degrees of freedom        ....  123

    -----------------------------------------------------------------
                    Redundant Internal Coordinates


    -----------------------------------------------------------------
         Definition                    Initial Value    Approx d2E/dq
    -----------------------------------------------------------------
      1. B(C   5,C   4)                  1.5357         0.365848   
      2. B(C   5,N   3)                  1.4652         0.424506   
      3. B(C   6,C   4)                  1.5034         0.411944   
      4. B(C   7,C   6)                  1.3886         0.627918   
      5. B(C   8,C   6)                  1.3889         0.627406   
      6. B(C   9,O   2)                  1.2246         1.027333   
      7. B(C   9,O   1)                  1.3589         0.627309   
      8. B(C   9,C   5)                  1.5195         0.388272   
      9. B(C  10,C   7)                  1.3949         0.613734   
     10. B(C  11,C   8)                  1.3949         0.613570   
     11. B(C  12,C  11)                  1.3950         0.613397   
     12. B(C  12,C  10)                  1.3950         0.613347   
     13. B(C  12,O   0)                  1.3609         0.622703   
     14. B(C  13,O   0)                  1.4269         0.488696   
     15. B(H  14,C   4)                  1.0987         0.348711   
     16. B(H  15,C   4)                  1.0994         0.347880   
     17. B(H  16,C   5)                  1.0960         0.352214   
     18. B(H  17,C   7)                  1.0863         0.364982   
     19. B(H  18,C   8)                  1.0865         0.364715   
     20. B(H  19,C  10)                  1.0866         0.364619   
     21. B(H  20,C  11)                  1.0846         0.367288   
     22. B(H  21,N   3)                  1.0196         0.417683   
     23. B(H  22,N   3)                  1.0194         0.417953   
     24. B(H  23,O   1)                  0.9810         0.481347   
     25. B(H  24,C  13)                  1.0949         0.353619   
     26. B(H  25,C  13)                  1.0953         0.353183   
     27. B(H  26,C  13)                  1.0952         0.353231   
     28. A(C  12,O   0,C  13)          117.0731         0.410929   
     29. A(C   9,O   1,H  23)          111.8673         0.365983   
     30. A(C   5,N   3,H  21)          109.5453         0.334540   
     31. A(C   5,N   3,H  22)          109.5278         0.334576   
     32. A(H  21,N   3,H  22)          106.0884         0.299888   
     33. A(H  14,C   4,H  15)          105.2610         0.287817   
     34. A(C   5,C   4,H  14)          109.8814         0.321511   
     35. A(C   6,C   4,H  14)          108.9537         0.327841   
     36. A(C   6,C   4,H  15)          108.7159         0.327712   
     37. A(C   5,C   4,H  15)          110.2465         0.321385   
     38. A(C   5,C   4,C   6)          113.4476         0.368166   
     39. A(C   9,C   5,H  16)          109.2423         0.325196   
     40. A(C   4,C   5,H  16)          111.3157         0.322037   
     41. A(N   3,C   5,C   9)          106.7265         0.371537   
     42. A(N   3,C   5,C   4)          109.4770         0.367758   
     43. A(C   4,C   5,C   9)          111.2361         0.364452   
     44. A(N   3,C   5,H  16)          108.7057         0.328031   
     45. A(C   4,C   6,C   7)          119.5590         0.404473   
     46. A(C   7,C   6,C   8)          120.8839         0.435990   
     47. A(C   4,C   6,C   8)          119.5571         0.404415   
     48. A(C  10,C   7,H  17)          119.2595         0.353107   
     49. A(C   6,C   7,H  17)          121.1813         0.354476   
     50. A(C   6,C   7,C  10)          119.5587         0.434264   
     51. A(C  11,C   8,H  18)          119.4764         0.353047   
     52. A(C   6,C   8,H  18)          120.9596         0.354383   
     53. A(C   6,C   8,C  11)          119.5639         0.434179   
     54. A(O   1,C   9,O   2)          122.6304         0.470520   
     55. A(O   2,C   9,C   5)          125.1151         0.434104   
     56. A(O   1,C   9,C   5)          112.2414         0.397647   
     57. A(C   7,C  10,H  19)          119.6662         0.353047   
     58. A(C   7,C  10,C  12)          120.0059         0.432434   
     59. A(C  12,C  10,H  19)          120.3279         0.353009   
     60. A(C   8,C  11,C  12)          119.9926         0.432420   
     61. A(C  12,C  11,H  20)          123.8357         0.353450   
     62. A(C   8,C  11,H  20)          116.1717         0.353467   
     63. A(O   0,C  12,C  10)          119.9783         0.430728   
     64. A(C  10,C  12,C  11)          119.9950         0.432391   
     65. A(O   0,C  12,C  11)          120.0267         0.430735   
     66. A(H  25,C  13,H  26)          112.2672         0.289081   
     67. A(H  24,C  13,H  26)          106.9731         0.289137   
     68. A(O   0,C  13,H  26)          111.5538         0.335933   
     69. A(H  24,C  13,H  25)          106.9714         0.289131   
     70. A(O   0,C  13,H  25)          111.5504         0.335926   
     71. A(O   0,C  13,H  24)          107.1713         0.335995   
     72. D(C   9,C   5,C   4,C   6)     63.0597         0.010715   
     73. D(C   9,C   5,N   3,H  22)    179.6899         0.015364   
     74. D(C   4,C   5,N   3,H  22)     59.1955         0.015364   
     75. D(N   3,C   5,C   4,H  15)     58.5736         0.010715   
     76. D(N   3,C   5,C   4,H  14)    -57.0032         0.010715   
     77. D(C   9,C   5,C   4,H  14)   -174.7099         0.010715   
     78. D(C   4,C   5,N   3,H  21)    175.1668         0.015364   
     79. D(C   9,C   5,N   3,H  21)    -64.3388         0.015364   
     80. D(N   3,C   5,C   4,C   6)   -179.2335         0.010715   
     81. D(H  16,C   5,N   3,H  21)     53.3759         0.015364   
     82. D(C   9,C   5,C   4,H  15)    -59.1332         0.010715   
     83. D(C   7,C   6,C   4,H  15)     33.0293         0.012564   
     84. D(C   7,C   6,C   4,H  14)    147.2463         0.012564   
     85. D(C   7,C   6,C   4,C   5)    -90.0097         0.012564   
     86. D(C   8,C   6,C   4,C   5)     89.9928         0.012564   
     87. D(C   8,C   6,C   4,H  14)    -32.7512         0.012564   
     88. D(H  17,C   7,C   6,C   8)    179.7397         0.027326   
     89. D(H  17,C   7,C   6,C   4)     -0.2577         0.027326   
     90. D(C  10,C   7,C   6,C   8)      0.0080         0.027326   
     91. D(C  10,C   7,C   6,C   4)   -179.9895         0.027326   
     92. D(H  18,C   8,C   6,C   7)    179.8527         0.027279   
     93. D(H  18,C   8,C   6,C   4)     -0.1499         0.027279   
     94. D(C  11,C   8,C   6,C   7)     -0.0077         0.027279   
     95. D(C  11,C   8,C   6,C   4)    179.9897         0.027279   
     96. D(O   2,C   9,C   5,N   3)    -33.5095         0.011221   
     97. D(O   1,C   9,C   5,H  16)     27.8353         0.011221   
     98. D(O   1,C   9,C   5,C   4)    -95.4434         0.011221   
     99. D(O   1,C   9,C   5,N   3)    145.1961         0.011221   
    100. D(C   5,C   9,O   1,H  23)   -179.4333         0.028921   
    101. D(O   2,C   9,C   5,C   4)     85.8511         0.011221   
    102. D(O   2,C   9,O   1,H  23)     -0.6906         0.028921   
    103. D(H  19,C  10,C   7,H  17)      0.2069         0.026033   
    104. D(H  19,C  10,C   7,C   6)    179.9438         0.026033   
    105. D(C  12,C  10,C   7,H  17)   -179.7439         0.026033   
    106. D(C  12,C  10,C   7,C   6)     -0.0070         0.026033   
    107. D(H  20,C  11,C   8,H  18)      0.1054         0.026018   
    108. D(H  20,C  11,C   8,C   6)    179.9678         0.026018   
    109. D(C  12,C  11,C   8,H  18)   -179.8560         0.026018   
    110. D(C  12,C  11,C   8,C   6)      0.0065         0.026018   
    111. D(C  10,C  12,C  11,H  20)   -179.9639         0.026003   
    112. D(C  10,C  12,C  11,C   8)     -0.0056         0.026003   
    113. D(O   0,C  12,C  11,C   8)   -179.9853         0.026003   
    114. D(C  11,C  12,C  10,H  19)   -179.9447         0.025998   
    115. D(C  11,C  12,C  10,C   7)      0.0059         0.025998   
    116. D(O   0,C  12,C  10,H  19)      0.0351         0.025998   
    117. D(O   0,C  12,C  11,H  20)      0.0565         0.026003   
    118. D(O   0,C  12,C  10,C   7)    179.9856         0.025998   
    119. D(C  11,C  12,O   0,C  13)     -0.0216         0.028467   
    120. D(C  10,C  12,O   0,C  13)    179.9987         0.028467   
    121. D(H  26,C  13,O   0,C  12)    -63.2192         0.018856   
    122. D(H  25,C  13,O   0,C  12)     63.2243         0.018856   
    123. D(H  24,C  13,O   0,C  12)   -179.9994         0.018856   
    -----------------------------------------------------------------

Number of atoms                         .... 27
Number of degrees of freedom            .... 123


         *************************************************************
         *                GEOMETRY OPTIMIZATION CYCLE   1            *
         *************************************************************
---------------------------------
CARTESIAN COORDINATES (ANGSTROEM)
---------------------------------
  O     -3.769200   -0.709100    0.008900
  O      1.785400   -1.433600    1.271900
  O      3.394700   -1.455100   -0.325200
  N      3.809000    1.234400    0.146700
  C      1.505800    1.166900   -0.687800
  C      2.475100    0.684100    0.401100
  C      0.100200    0.667000   -0.501900
  C     -0.281100   -0.536300   -1.080700
  C     -0.799600    1.414900    0.246400
  C      2.615200   -0.828800    0.381800
  C     -1.585300   -1.000000   -0.908400
  C     -2.103900    0.951300    0.418800
  C     -2.496800   -0.256300   -0.158600
  C     -4.649500    0.100600    0.787000
  H      1.493100    2.265200   -0.716500
  H      1.862600    0.855600   -1.680000
  H      2.147000    1.003800    1.396800
  H      0.417500   -1.123100   -1.670400
  H     -0.501900    2.355400    0.701800
  H     -1.885800   -1.940900   -1.361300
  H     -2.759800    1.578200    1.013100
  H      4.434100    0.980900    0.911300
  H      3.762900    2.252800    0.145300
  H      1.886700   -2.409300    1.261200
  H     -5.617500   -0.410300    0.816300
  H     -4.817200    1.076700    0.319300
  H     -4.303900    0.190400    1.822400

----------------------------
CARTESIAN COORDINATES (A.U.)
----------------------------
  NO LB      ZA    FRAG     MASS         X           Y           Z
   0 O     8.0000    0    15.999   -7.122756   -1.340005    0.016819
   1 O     8.0000    0    15.999    3.373917   -2.709111    2.403543
   2 O     8.0000    0    15.999    6.415053   -2.749740   -0.614539
   3 N     7.0000    0    14.007    7.197967    2.332678    0.277223
   4 C     6.0000    0    12.011    2.845550    2.205121   -1.299754
   5 C     6.0000    0    12.011    4.677261    1.292762    0.757969
   6 C     6.0000    0    12.011    0.189351    1.260447   -0.948454
   7 C     6.0000    0    12.011   -0.531202   -1.013460   -2.042227
   8 C     6.0000    0    12.011   -1.511025    2.673774    0.465629
   9 C     6.0000    0    12.011    4.942012   -1.566205    0.721497
  10 C     6.0000    0    12.011   -2.995783   -1.889726   -1.716627
  11 C     6.0000    0    12.011   -3.975795    1.797696    0.791417
  12 C     6.0000    0    12.011   -4.718268   -0.484337   -0.299711
  13 C     6.0000    0    12.011   -8.786282    0.190106    1.487214
  14 H     1.0000    0     1.008    2.821550    4.280608   -1.353989
  15 H     1.0000    0     1.008    3.519804    1.616850   -3.174740
  16 H     1.0000    0     1.008    4.057242    1.896907    2.639569
  17 H     1.0000    0     1.008    0.788961   -2.122351   -3.156599
  18 H     1.0000    0     1.008   -0.948454    4.451061    1.326210
  19 H     1.0000    0     1.008   -3.563646   -3.667769   -2.572484
  20 H     1.0000    0     1.008   -5.215266    2.982366    1.914482
  21 H     1.0000    0     1.008    8.379235    1.853632    1.722107
  22 H     1.0000    0     1.008    7.110850    4.257175    0.274577
  23 H     1.0000    0     1.008    3.565346   -4.552917    2.383323
  24 H     1.0000    0     1.008  -10.615537   -0.775355    1.542583
  25 H     1.0000    0     1.008   -9.103189    2.034668    0.603390
  26 H     1.0000    0     1.008   -8.133192    0.359804    3.443837

--------------------------------
INTERNAL COORDINATES (ANGSTROEM)
--------------------------------
 O      0   0   0     0.000000000000     0.00000000     0.00000000
 O      1   0   0     5.742268751112     0.00000000     0.00000000
 O      2   1   0     2.267385531841   122.19709631     0.00000000
 N      3   2   1     2.761837133142    88.67536962    94.89169776
 C      4   3   2     2.450648228531    76.93897407   296.34389009
 C      4   3   2     1.465209425304    61.79424268   331.71348298
 C      5   4   3     1.503386237798   147.75283533    61.02388855
 C      7   5   4     1.388643229919   119.55896973   269.18060527
 C      7   5   4     1.388865486647   119.55713292    89.18314149
 C      3   2   1     1.224630940324    30.31369697    77.38523619
 C      8   7   5     1.394862939503   119.55868600   180.01053821
 C      9   7   5     1.394935557651   119.56387094   179.98973067
 C      1   2   3     1.360913608573    33.34728869   310.48764195
 C      1   2   3     1.426878337491   123.25962321   220.86265627
 H      5   4   3     1.098748319680    89.55453912   187.63837960
 H      5   4   3     1.099397457701    90.57891205   292.89602341
 H      6   4   3     1.096027458598   108.70573400   130.84834667
 H      8   7   5     1.086334336197   121.18130397   359.74228723
 H      9   7   5     1.086533340492   120.95960251   359.85011360
 H     11   8   7     1.086605480384   119.66619294   179.94384648
 H     12   9   7     1.084620168538   116.17170127   179.96783053
 H      4   3   2     1.019620233224    88.73853579    84.76336435
 H      4   3   2     1.019443833666   164.97063778   274.04227258
 H      2   1   3     0.981002889904   102.88385778   268.02677285
 H     14   1   2     1.094943514525   107.17133201   218.12312475
 H     14   1   2     1.095279777043   111.55035181   101.34689550
 H     14   1   2     1.095242694566   111.55375939   334.90330552

---------------------------
INTERNAL COORDINATES (A.U.)
---------------------------
 O      0   0   0     0.000000000000     0.00000000     0.00000000
 O      1   0   0    10.851315326976     0.00000000     0.00000000
 O      2   1   0     4.284737695194   122.19709631     0.00000000
 N      3   2   1     5.219115808132    88.67536962    94.89169776
 C      4   3   2     4.631054002502    76.93897407   296.34389009
 C      4   3   2     2.768844542665    61.79424268   331.71348298
 C      5   4   3     2.840988262944   147.75283533    61.02388855
 C      7   5   4     2.624155402271   119.55896973   269.18060527
 C      7   5   4     2.624575406619   119.55713292    89.18314149
 C      3   2   1     2.314217092340    30.31369697    77.38523619
 C      8   7   5     2.635908950018   119.55868600   180.01053821
 C      9   7   5     2.636046178430   119.56387094   179.98973067
 C      1   2   3     2.571754012130    33.34728869   310.48764195
 C      1   2   3     2.696409284282   123.25962321   220.86265627
 H      5   4   3     2.076333414302    89.55453912   187.63837960
 H      5   4   3     2.077560107385    90.57891205   292.89602341
 H      6   4   3     2.071191732007   108.70573400   130.84834667
 H      8   7   5     2.052874385287   121.18130397   359.74228723
 H      9   7   5     2.053250448904   120.95960251   359.85011360
 H     11   8   7     2.053386773543   119.66619294   179.94384648
 H     12   9   7     2.049635077865   116.17170127   179.96783053
 H      4   3   2     1.926803001398    88.73853579    84.76336435
 H      4   3   2     1.926469654544   164.97063778   274.04227258
 H      2   1   3     1.853826798504   102.88385778   268.02677285
 H     14   1   2     2.069143374565   107.17133201   218.12312475
 H     14   1   2     2.069778818634   111.55035181   101.34689550
 H     14   1   2     2.069708742908   111.55375939   334.90330552

---------------------
BASIS SET INFORMATION
---------------------
There are 4 groups of distinct atoms

 Group   1 Type O   : 10s4p1d contracted to 3s2p1d pattern {631/31/1}
 Group   2 Type N   : 10s4p1d contracted to 3s2p1d pattern {631/31/1}
 Group   3 Type C   : 10s4p1d contracted to 3s2p1d pattern {631/31/1}
 Group   4 Type H   : 4s1p contracted to 2s1p pattern {31/1}

Atom   0O    basis set group =>   1
Atom   1O    basis set group =>   1
Atom   2O    basis set group =>   1
Atom   3N    basis set group =>   2
Atom   4C    basis set group =>   3
Atom   5C    basis set group =>   3
Atom   6C    basis set group =>   3
Atom   7C    basis set group =>   3
Atom   8C    basis set group =>   3
Atom   9C    basis set group =>   3
Atom  10C    basis set group =>   3
Atom  11C    basis set group =>   3
Atom  12C    basis set group =>   3
Atom  13C    basis set group =>   3
Atom  14H    basis set group =>   4
Atom  15H    basis set group =>   4
Atom  16H    basis set group =>   4
Atom  17H    basis set group =>   4
Atom  18H    basis set group =>   4
Atom  19H    basis set group =>   4
Atom  20H    basis set group =>   4
Atom  21H    basis set group =>   4
Atom  22H    basis set group =>   4
Atom  23H    basis set group =>   4
Atom  24H    basis set group =>   4
Atom  25H    basis set group =>   4
Atom  26H    basis set group =>   4
---------------------------------
AUXILIARY/J BASIS SET INFORMATION
---------------------------------
There are 4 groups of distinct atoms

 Group   1 Type O   : 12s5p4d2f1g contracted to 6s4p3d1f1g pattern {711111/2111/211/2/1}
 Group   2 Type N   : 12s5p4d2f1g contracted to 6s4p3d1f1g pattern {711111/2111/211/2/1}
 Group   3 Type C   : 12s5p4d2f1g contracted to 6s4p3d1f1g pattern {711111/2111/211/2/1}
 Group   4 Type H   : 5s2p1d contracted to 3s1p1d pattern {311/2/1}

Atom   0O    basis set group =>   1
Atom   1O    basis set group =>   1
Atom   2O    basis set group =>   1
Atom   3N    basis set group =>   2
Atom   4C    basis set group =>   3
Atom   5C    basis set group =>   3
Atom   6C    basis set group =>   3
Atom   7C    basis set group =>   3
Atom   8C    basis set group =>   3
Atom   9C    basis set group =>   3
Atom  10C    basis set group =>   3
Atom  11C    basis set group =>   3
Atom  12C    basis set group =>   3
Atom  13C    basis set group =>   3
Atom  14H    basis set group =>   4
Atom  15H    basis set group =>   4
Atom  16H    basis set group =>   4
Atom  17H    basis set group =>   4
Atom  18H    basis set group =>   4
Atom  19H    basis set group =>   4
Atom  20H    basis set group =>   4
Atom  21H    basis set group =>   4
Atom  22H    basis set group =>   4
Atom  23H    basis set group =>   4
Atom  24H    basis set group =>   4
Atom  25H    basis set group =>   4
Atom  26H    basis set group =>   4


           ************************************************************
           *        Program running with 2 parallel MPI-processes     *
           *              working on a common directory               *
           ************************************************************
------------------------------------------------------------------------------
                             ORCA STARTUP CALCULATIONS
                           -- RI-GTO INTEGRALS CHOSEN --
------------------------------------------------------------------------------
------------------------------------------------------------------------------
                   ___                                                        
                  /   \      - P O W E R E D   B Y -                         
                 /     \                                                     
                 |  |  |   _    _      __       _____    __    __             
                 |  |  |  | |  | |    /  \     |  _  \  |  |  /  |          
                  \  \/   | |  | |   /    \    | | | |  |  | /  /          
                 / \  \   | |__| |  /  /\  \   | |_| |  |  |/  /          
                |  |  |   |  __  | /  /__\  \  |    /   |      \           
                |  |  |   | |  | | |   __   |  |    \   |  |\   \          
                \     /   | |  | | |  |  |  |  | |\  \  |  | \   \       
                 \___/    |_|  |_| |__|  |__|  |_| \__\ |__|  \__/        
                                                                              
                      - O R C A' S   B I G   F R I E N D -                    
                                      &                                       
                       - I N T E G R A L  F E E D E R -                       
                                                                              
 v1 FN, 2020, v2 2021, v3 2022-2024                                           
------------------------------------------------------------------------------


----------------------
SHARK INTEGRAL PACKAGE
----------------------

Number of atoms                             ...     27
Number of basis functions                   ...    261
Number of shells                            ...    123
Maximum angular momentum                    ...      2
Integral batch strategy                     ... SHARK/LIBINT Hybrid
RI-J (if used) integral strategy            ... SPLIT-RIJ (Revised 2003 algorithm where possible)
Printlevel                                  ...      1
Contraction scheme used                     ... SEGMENTED contraction
Prescreening option                         ... SCHWARTZ
   Thresh                                   ... 2.500e-11
   Tcut                                     ... 2.500e-12
   Tpresel                                  ... 2.500e-12 
Coulomb Range Separation                    ... NOT USED
Exchange Range Separation                   ... NOT USED
Multipole approximations                    ... NOT USED
Finite Nucleus Model                        ... NOT USED
CABS basis                                  ... NOT available
Auxiliary Coulomb fitting basis             ... AVAILABLE
   # of basis functions in Aux-J            ...    829
   # of shells in Aux-J                     ...    275
   Maximum angular momentum in Aux-J        ...      4
Auxiliary J/K fitting basis                 ... NOT available
Auxiliary Correlation fitting basis         ... NOT available
Auxiliary 'external' fitting basis          ... NOT available

Checking pre-screening integrals            ... done (  0.0 sec) Dimension = 123
   => SHARK Basis and OBASIS are compatible. Storing Pre-screening
Shell pair information
Shell pair cut-off parameter TPreSel        ...   2.5e-12
Total number of shell pairs                 ...      7626
Shell pairs after pre-screening             ...      5993
Total number of primitive shell pairs       ...     38283
Primitive shell pairs kept                  ...     18483
          la=0 lb=0:   1842 shell pairs
          la=1 lb=0:   2196 shell pairs
          la=1 lb=1:    693 shell pairs
          la=2 lb=0:    732 shell pairs
          la=2 lb=1:    448 shell pairs
          la=2 lb=2:     82 shell pairs

Checking whether 4 symmetric matrices of dimension 261 fit in memory
:Max Core in MB      =   3000.00
 MB in use           =     11.50
 MB left             =   2988.50
 MB needed           =      1.04
 Data fit in memory  = YES
Calculating RI/J V-Matrix + Cholesky decomp.... done (  0.1 sec)
Calculating Nuclear repulsion               ... done (  0.0 sec) ENN=    883.137619145275 Eh

Diagonalization of the overlap matrix:
Smallest eigenvalue                        ... 4.524e-04
Time for diagonalization                   ...    0.010 sec
Threshold for overlap eigenvalues          ... 1.000e-07
Number of eigenvalues below threshold      ... 0
Time for construction of square roots      ...    0.003 sec
Total time needed                          ...    0.015 sec

-------------------
DFT GRID GENERATION
-------------------

General Integration Accuracy     IntAcc      ... 4.388
Radial Grid Type                 RadialGrid  ... OptM3 with GC (2021)
Angular Grid (max. ang.)         AngularGrid ... 4 (Lebedev-302)
Angular grid pruning method      GridPruning ... 4 (adaptive)
Weight generation scheme         WeightScheme... mBecke (2022)
Basis function cutoff            BFCut       ... 1.0000e-11
Integration weight cutoff        WCut        ... 1.0000e-14
Partially contracted basis set               ... off
Rotationally invariant grid construction     ... off
Angular grids for H and He will be reduced by one unit

Total number of grid points                  ...   125686
Total number of batches                      ...     1978
Average number of points per batch           ...       63
Average number of grid points per atom       ...     4655

--------------------
COSX GRID GENERATION
--------------------

GRIDX 1
-------
General Integration Accuracy     IntAcc      ... 3.816
Radial Grid Type                 RadialGrid  ... OptM3 with GC (2021)
Angular Grid (max. ang.)         AngularGrid ... 1 (Lebedev-50)
Angular grid pruning method      GridPruning ... 4 (adaptive)
Weight generation scheme         WeightScheme... mBecke (2022)
Basis function cutoff            BFCut       ... 1.0000e-11
Integration weight cutoff        WCut        ... 1.0000e-14
Partially contracted basis set               ... on
Rotationally invariant grid construction     ... off
Angular grids for H and He will be reduced by one unit

Total number of grid points                  ...    15958
Total number of batches                      ...      141
Average number of points per batch           ...      113
Average number of grid points per atom       ...      591
UseSFitting                                  ... on

GRIDX 2
-------
General Integration Accuracy     IntAcc      ... 4.020
Radial Grid Type                 RadialGrid  ... OptM3 with GC (2021)
Angular Grid (max. ang.)         AngularGrid ... 2 (Lebedev-110)
Angular grid pruning method      GridPruning ... 4 (adaptive)
Weight generation scheme         WeightScheme... mBecke (2022)
Basis function cutoff            BFCut       ... 1.0000e-11
Integration weight cutoff        WCut        ... 1.0000e-14
Partially contracted basis set               ... on
Rotationally invariant grid construction     ... off
Angular grids for H and He will be reduced by one unit

Total number of grid points                  ...    34587
Total number of batches                      ...      288
Average number of points per batch           ...      120
Average number of grid points per atom       ...     1281
UseSFitting                                  ... on

GRIDX 3
-------
General Integration Accuracy     IntAcc      ... 4.338
Radial Grid Type                 RadialGrid  ... OptM3 with GC (2021)
Angular Grid (max. ang.)         AngularGrid ... 3 (Lebedev-194)
Angular grid pruning method      GridPruning ... 4 (adaptive)
Weight generation scheme         WeightScheme... mBecke (2022)
Basis function cutoff            BFCut       ... 1.0000e-11
Integration weight cutoff        WCut        ... 1.0000e-14
Partially contracted basis set               ... on
Rotationally invariant grid construction     ... off
Angular grids for H and He will be reduced by one unit

Total number of grid points                  ...    75810
Total number of batches                      ...      603
Average number of points per batch           ...      125
Average number of grid points per atom       ...     2808
UseSFitting                                  ... on
Grids setup in   2.9 sec
Initializing property integral containers    ... done (  0.0 sec)

SHARK setup successfully completed in   3.3 seconds

Maximum memory used throughout the entire STARTUP-calculation: 43.0 MB


           ************************************************************
           *        Program running with 2 parallel MPI-processes     *
           *              working on a common directory               *
           ************************************************************
-------------------------------------------------------------------------------
                                 ORCA GUESS
                   Start orbitals & Density for SCF / CASSCF
-------------------------------------------------------------------------------

------------
SCF SETTINGS
------------
Hamiltonian:
 Density Functional     Method          .... DFT(GTOs)
 Exchange Functional    Exchange        .... B88
   X-Alpha parameter    XAlpha          ....  0.666667
   Becke's b parameter  XBeta           ....  0.004200
 Correlation Functional Correlation     .... LYP
 LDA part of GGA corr.  LDAOpt          .... VWN-5
 Gradients option       PostSCFGGA      .... off
 Hybrid DFT is turned on
   Fraction HF Exchange ScalHFX         ....  0.200000
   Scaling of DF-GGA-X  ScalDFX         ....  0.720000
   Scaling of DF-GGA-C  ScalDFC         ....  0.810000
   Scaling of DF-LDA-C  ScalLDAC        ....  1.000000
   Perturbative correction              ....  0.000000
   NL short-range parameter             ....  4.800000
 RI-approximation to the Coulomb term is turned on
   Number of AuxJ basis functions       .... 829
   RIJ-COSX (HFX calculated with COS-X)).... on


General Settings:
 Integral files         IntName         .... /kaggle/working/Phe-OMe-1/Phe-OMe_InterFrag
 Hartree-Fock type      HFTyp           .... RHF
 Total Charge           Charge          ....    0
 Multiplicity           Mult            ....    1
 Number of Electrons    NEL             ....  104
 Basis Dimension        Dim             ....  261
 Nuclear Repulsion      ENuc            ....    883.1376191453 Eh

Convergence Acceleration:
 AO-DIIS                CNVDIIS         .... on
   Start iteration      DIISMaxIt       ....    12
   Startup error        DIISStart       ....  0.200000
   # of expansion vecs  DIISMaxEq       ....     5
   Bias factor          DIISBfac        ....   1.050
   Max. coefficient     DIISMaxC        ....  10.000
 MO-DIIS                CNVKDIIS        .... off
 Trust-Rad. Augm. Hess. CNVTRAH         .... auto
   Auto Start mean grad. ratio tolernc. ....  1.125000
   Auto Start start iteration           ....    50
   Auto Start num. interpolation iter.  ....    10
   Max. Number of Micro iterations      ....    24
   Max. Number of Macro iterations      .... Maxiter - #DIIS iter
   Number of Davidson start vectors     ....     2
   Converg. threshold    (grad. norm)   ....   1.000e-05
   Grad. Scal. Fac. for Micro threshold ....   0.100
   Minimum threshold for Micro iter.    ....   1.000e-02
   NR start threshold (gradient norm)   ....   1.000e-04
   Initial trust radius                 ....   0.400
   Minimum AH scaling param. (alpha)    ....   1.000
   Maximum AH scaling param. (alpha)    .... 1000.000
   Quad. conv. algorithm                .... NR
   White noise on init. David. guess    .... on
   Maximum white noise                  ....   0.010
   Pseudo random numbers                .... off
   Inactive MOs                         .... canonical
   Orbital update algorithm             .... Taylor
   Preconditioner                       .... Diag
   Full preconditioner red. dimension   ....   250
 SOSCF                 CNVSOSCF           .... on
   Start iteration     SOSCFMaxIt         ....   150
   Startup grad/error  SOSCFStart         ....  0.000330
   Hessian update      SOSCFHessUp        .... L-BFGS
   Autom. constraints  SOSCFAutoConstrain .... off
 Level Shifting         CNVShift        .... on
   Level shift para.    LevelShift      ....    0.2500
   Turn off err/grad.   ShiftErr        ....    0.0010
 Zerner damping         CNVZerner       .... off
 Static damping         CNVDamp         .... on
   Fraction old density DampFac         ....    0.7000
   Max. Damping (<1)    DampMax         ....    0.9800
   Min. Damping (>=0)   DampMin         ....    0.0000
   Turn off err/grad.   DampErr         ....    0.1000

SCF Procedure:
 Maximum # iterations   MaxIter         ....  1000
 SCF integral mode      SCFMode         .... Direct
   Integral package                     .... SHARK and LIBINT hybrid scheme
 Reset frequency        DirectResetFreq ....    20
 Integral Threshold     Thresh          ....  2.500e-11 Eh
 Primitive CutOff       TCut            ....  2.500e-12 Eh

Convergence Tolerance:
 Convergence Check Mode ConvCheckMode   .... Total+1el-Energy
 Convergence forced     ConvForced      .... 0
 Energy Change          TolE            ....  1.000e-08 Eh
 1-El. energy change                    ....  1.000e-05 Eh
 Orbital Gradient       TolG            ....  1.000e-05
 Orbital Rotation angle TolX            ....  1.000e-05
 DIIS Error             TolErr          ....  5.000e-07

------------------------------
INITIAL GUESS: MODEL POTENTIAL
------------------------------
Loading Hartree-Fock densities                     ... done
Calculating cut-offs                               ... done
Initializing the effective Hamiltonian             ... done
Setting up the integral package (SHARK)            ... done
Starting the Coulomb interaction                   ... done (   0.3 sec)
Making the grid                                    ... done (   0.4 sec)
Mapping shells                                     ... done
Starting the XC term evaluation                    ... done (   0.2 sec)
  promolecular density results
     # of electrons  =    103.991369894
     EX              =    -86.464588954
     EC              =     -3.545068544
     EX+EC           =    -90.009657498
Transforming the Hamiltonian                       ... done (   0.0 sec)
Diagonalizing the Hamiltonian                      ... done (   0.0 sec)
Back transforming the eigenvectors                 ... done (   0.0 sec)
Now organizing SCF variables                       ... done
                      ------------------
                      INITIAL GUESS DONE (   0.9 sec)
                      ------------------
             **** ENERGY FILE WAS UPDATED (/kaggle/working/Phe-OMe-1/Phe-OMe_InterFrag.en.tmp) ****
Finished Guess after   1.3 sec
Maximum memory used throughout the entire GUESS-calculation: 16.6 MB


           ************************************************************
           *        Program running with 2 parallel MPI-processes     *
           *              working on a common directory               *
           ************************************************************

-------------------------------------------------------------------------------------------
                                      ORCA LEAN-SCF
                              memory conserving SCF solver
-------------------------------------------------------------------------------------------

--------------------
CPCM SOLVATION MODEL
--------------------
CPCM parameters:
  Epsilon                                         ...      78.3550
  Refrac                                          ...       1.3328
  Rsolv                                           ...       1.3000
  Surface type                                    ... GAUSSIAN VDW
  Discretization scheme                           ... Constant charge density
    Threshold for H atoms                         ...       5.0000 (charges/Ang^2)
    Threshold for non-H atoms                     ...       5.0000 (charges/Ang^2)
  Epsilon function type                           ...         CPCM
Solvent:                                          ... WATER
SMD-CDS solvent descriptors:
  Soln                                            ...       1.3328
  Soln25                                          ...       1.3323
  Sola                                            ...       0.0000
  Solb                                            ...       0.0000
  Solg                                            ...       0.0000
  Solc                                            ...       0.0000
  Solh                                            ...       0.0000
Radii:
  Scheme                                          ... Element-dependent radii
  Radius for O  used is    2.8724 Bohr (=   1.5200 Ang.)
  Radius for N  used is    3.5716 Bohr (=   1.8900 Ang.)
  Radius for C  used is    3.4960 Bohr (=   1.8500 Ang.)
  Radius for H  used is    2.2677 Bohr (=   1.2000 Ang.)
Calculating surface                               ...        done! (  0.0s)
Cavity surface points                             ...         1999
Cavity Volume                                     ...    1328.9203
Cavity Surface-area                               ...     812.0399
Calculating surface distance matrix               ...        done! (  0.1s)
Performing Cholesky decomposition & store         ...        done! (  0.2s)
Overall time for CPCM initialization              ...                 0.2s

----------------------------------------D-I-I-S--------------------------------------------
Iteration    Energy (Eh)           Delta-E    RMSDP     MaxDP     DIISErr   Damp  Time(sec)
-------------------------------------------------------------------------------------------
               ***  Starting incremental Fock matrix formation  ***
    1    -668.5653768712927558     0.00e+00  3.49e-03  8.80e-02  2.57e-01  0.700   8.4
    2    -668.7465604143517339    -1.81e-01  2.36e-03  5.46e-02  1.18e-01  0.700   4.1
                               ***Turning on AO-DIIS***
    3    -668.8187768322302418    -7.22e-02  9.70e-04  1.49e-02  3.62e-02  0.700   4.0
    4    -668.8622554992039113    -4.35e-02  1.58e-03  2.28e-02  1.75e-02  0.000   3.8
    5    -668.9570570606053934    -9.48e-02  3.32e-04  6.79e-03  5.73e-03  0.000   4.0
    6    -668.9575954748509048    -5.38e-04  1.09e-04  2.20e-03  2.45e-03  0.000   3.6
    7    -668.9576275746401279    -3.21e-05  4.18e-05  8.41e-04  6.57e-04  0.000   3.3
               *** Restarting incremental Fock matrix formation ***
                             ****Resetting DIIS****
    8    -668.9575668572354061     6.07e-05  3.39e-05  9.56e-04  5.90e-04  0.000   7.7
    9    -668.9575655490405097     1.31e-06  1.66e-05  6.53e-04  1.05e-03  0.000   4.9
                              *** Initializing SOSCF ***
---------------------------------------S-O-S-C-F--------------------------------------
Iteration    Energy (Eh)           Delta-E    RMSDP     MaxDP     MaxGrad    Time(sec)
--------------------------------------------------------------------------------------
   10    -668.9575680055847897    -2.46e-06  2.90e-06  8.35e-05  9.11e-05     2.7
               *** Restarting incremental Fock matrix formation ***
   11    -668.9575679991505694     6.43e-09  3.69e-06  1.04e-04  2.09e-05     7.6
   12    -668.9575679795671022     1.96e-08  2.33e-06  6.97e-05  4.11e-05     3.6
   13    -668.9575680208297399    -4.13e-08  5.45e-07  1.63e-05  2.81e-06     3.3
   14    -668.9575680195296172     1.30e-09  3.43e-07  1.03e-05  4.17e-06     2.8
                 **** Energy Check signals convergence ****

               *****************************************************
               *                     SUCCESS                       *
               *           SCF CONVERGED AFTER  14 CYCLES          *
               *****************************************************

Recomputing exchange energy using gridx3       ... done (   11.673 sec)
Old exchange energy                            :    -17.579578149 Eh
New exchange energy                            :    -17.579566865 Eh
Exchange energy change after final integration :      0.000011285 Eh
Total energy after final integration           :   -668.957556737 Eh

SMD CDS free energy correction energy :                 5.89725     Kcal/mol
Total Energy after SMD CDS correction =              -668.948158867 Eh
             **** ENERGY FILE WAS UPDATED (/kaggle/working/Phe-OMe-1/Phe-OMe_InterFrag.en.tmp) ****

----------------
TOTAL SCF ENERGY
----------------

Total Energy       :       -668.94815886658853 Eh          -18203.00483 eV

Components:
Nuclear Repulsion  :        883.13761914527549 Eh           24031.39635 eV
Electronic Energy  :      -1552.05612116469433 Eh          -42233.59417 eV
One Electron Energy:      -2664.39044653901510 Eh          -72501.74997 eV
Two Electron Energy:       1112.33432537432077 Eh           30268.15580 eV
CPCM Dielectric    :         -0.03906600290922 Eh              -1.06304 eV
SMD CDS (Gcds)     :          0.00939787090294 Eh               0.25573 eV

Virial components:
Potential Energy   :      -1333.82719949863622 Eh          -36295.28331 eV
Kinetic Energy     :        664.87904063204758 Eh           18092.27849 eV
Virial Ratio       :          2.00612008799476

DFT components:
N(Alpha)           :       51.999971720089 electrons
N(Beta)            :       51.999971720089 electrons
N(Total)           :      103.999943440178 electrons
E(X)               :      -69.830904720648 Eh       
E(C)               :       -4.180596860280 Eh       
E(XC)              :      -74.011501580928 Eh       

CPCM Solvation Model Properties:
Surface-charge          :         -0.03999632345509
Corrected charge        :         -0.00000000000000
Outlying charge corr.   :          0.00010331438865 Eh               0.00281 eV
Free-energy (cav+disp)  :          0.00939787090294 Eh               0.25573 eV

---------------
SCF CONVERGENCE
---------------

  Last Energy change         ...   -1.3001e-09  Tolerance :   1.0000e-08
  Last MAX-Density change    ...    1.0336e-05  Tolerance :   1.0000e-07
  Last RMS-Density change    ...    3.4273e-07  Tolerance :   5.0000e-09
  Last DIIS Error            ...    9.1087e-05  Tolerance :   5.0000e-07
  Last Orbital Gradient      ...    4.1707e-06  Tolerance :   1.0000e-05
  Last Orbital Rotation      ...    3.8963e-06  Tolerance :   1.0000e-05


----------------
ORBITAL ENERGIES
----------------

  NO   OCC          E(Eh)            E(eV) 
   0   2.0000     -19.186809      -522.0996 
   1   2.0000     -19.168230      -521.5940 
   2   2.0000     -19.139057      -520.8002 
   3   2.0000     -14.301924      -389.1751 
   4   2.0000     -10.317841      -280.7627 
   5   2.0000     -10.236367      -278.5457 
   6   2.0000     -10.218720      -278.0655 
   7   2.0000     -10.216271      -277.9989 
   8   2.0000     -10.176863      -276.9265 
   9   2.0000     -10.176481      -276.9161 
  10   2.0000     -10.174959      -276.8747 
  11   2.0000     -10.174735      -276.8686 
  12   2.0000     -10.174270      -276.8560 
  13   2.0000     -10.171120      -276.7703 
  14   2.0000      -1.093497       -29.7556 
  15   2.0000      -1.058247       -28.7964 
  16   2.0000      -1.008795       -27.4507 
  17   2.0000      -0.882953       -24.0264 
  18   2.0000      -0.848980       -23.1019 
  19   2.0000      -0.773743       -21.0546 
  20   2.0000      -0.742360       -20.2006 
  21   2.0000      -0.721937       -19.6449 
  22   2.0000      -0.688911       -18.7462 
  23   2.0000      -0.651435       -17.7264 
  24   2.0000      -0.605796       -16.4845 
  25   2.0000      -0.583688       -15.8830 
  26   2.0000      -0.562583       -15.3087 
  27   2.0000      -0.522742       -14.2245 
  28   2.0000      -0.505754       -13.7623 
  29   2.0000      -0.484321       -13.1790 
  30   2.0000      -0.480427       -13.0731 
  31   2.0000      -0.461713       -12.5638 
  32   2.0000      -0.459469       -12.5028 
  33   2.0000      -0.457065       -12.4374 
  34   2.0000      -0.439958       -11.9719 
  35   2.0000      -0.423191       -11.5156 
  36   2.0000      -0.420021       -11.4293 
  37   2.0000      -0.416165       -11.3244 
  38   2.0000      -0.401653       -10.9295 
  39   2.0000      -0.393045       -10.6953 
  40   2.0000      -0.378906       -10.3105 
  41   2.0000      -0.363104        -9.8806 
  42   2.0000      -0.361178        -9.8282 
  43   2.0000      -0.344132        -9.3643 
  44   2.0000      -0.332320        -9.0429 
  45   2.0000      -0.319307        -8.6888 
  46   2.0000      -0.316010        -8.5991 
  47   2.0000      -0.306923        -8.3518 
  48   2.0000      -0.277211        -7.5433 
  49   2.0000      -0.247204        -6.7268 
  50   2.0000      -0.235488        -6.4079 
  51   2.0000      -0.211711        -5.7610 
  52   0.0000      -0.003117        -0.0848 
  53   0.0000       0.005760         0.1567 
  54   0.0000       0.019812         0.5391 
  55   0.0000       0.099224         2.7000 
  56   0.0000       0.103484         2.8159 
  57   0.0000       0.107758         2.9323 
  58   0.0000       0.128094         3.4856 
  59   0.0000       0.138672         3.7735 
  60   0.0000       0.148140         4.0311 
  61   0.0000       0.151777         4.1301 
  62   0.0000       0.170401         4.6369 
  63   0.0000       0.172908         4.7051 
  64   0.0000       0.178228         4.8498 
  65   0.0000       0.180842         4.9210 
  66   0.0000       0.190269         5.1775 
  67   0.0000       0.196578         5.3491 
  68   0.0000       0.202295         5.5047 
  69   0.0000       0.217968         5.9312 
  70   0.0000       0.230210         6.2643 
  71   0.0000       0.251369         6.8401 
  72   0.0000       0.261279         7.1098 
  73   0.0000       0.277483         7.5507 
  74   0.0000       0.280958         7.6453 
  75   0.0000       0.328012         8.9257 
  76   0.0000       0.336400         9.1539 
  77   0.0000       0.344494         9.3742 
  78   0.0000       0.362856         9.8738 
  79   0.0000       0.369056        10.0425 
  80   0.0000       0.376881        10.2554 
  81   0.0000       0.483058        13.1447 
  82   0.0000       0.502549        13.6751 
  83   0.0000       0.511055        13.9065 
  84   0.0000       0.533718        14.5232 
  85   0.0000       0.536265        14.5925 
  86   0.0000       0.545897        14.8546 
  87   0.0000       0.550062        14.9679 
  88   0.0000       0.557594        15.1729 
  89   0.0000       0.570873        15.5342 
  90   0.0000       0.585358        15.9284 
  91   0.0000       0.596263        16.2251 
  92   0.0000       0.602538        16.3959 
  93   0.0000       0.610844        16.6219 
  94   0.0000       0.618372        16.8268 
  95   0.0000       0.619943        16.8695 
  96   0.0000       0.646888        17.6027 
  97   0.0000       0.649996        17.6873 
  98   0.0000       0.657196        17.8832 
  99   0.0000       0.668883        18.2012 
 100   0.0000       0.677957        18.4481 
 101   0.0000       0.701025        19.0759 
 102   0.0000       0.712422        19.3860 
 103   0.0000       0.724391        19.7117 
 104   0.0000       0.739702        20.1283 
 105   0.0000       0.756329        20.5808 
 106   0.0000       0.761564        20.7232 
 107   0.0000       0.795286        21.6408 
 108   0.0000       0.810717        22.0607 
 109   0.0000       0.822634        22.3850 
 110   0.0000       0.827144        22.5077 
 111   0.0000       0.831128        22.6162 
 112   0.0000       0.839566        22.8458 
 113   0.0000       0.846058        23.0224 
 114   0.0000       0.859636        23.3919 
 115   0.0000       0.863850        23.5065 
 116   0.0000       0.874002        23.7828 
 117   0.0000       0.882880        24.0244 
 118   0.0000       0.883522        24.0419 
 119   0.0000       0.909740        24.7553 
 120   0.0000       0.921128        25.0652 
 121   0.0000       0.927925        25.2501 
 122   0.0000       0.929698        25.2984 
 123   0.0000       0.937690        25.5159 
 124   0.0000       0.955603        26.0033 
 125   0.0000       0.968057        26.3422 
 126   0.0000       0.995630        27.0925 
 127   0.0000       1.012806        27.5598 
 128   0.0000       1.018041        27.7023 
 129   0.0000       1.032805        28.1041 
 130   0.0000       1.044412        28.4199 
 131   0.0000       1.047436        28.5022 
 132   0.0000       1.053114        28.6567 
 133   0.0000       1.069784        29.1103 
 134   0.0000       1.093585        29.7580 
 135   0.0000       1.126350        30.6495 
 136   0.0000       1.150332        31.3021 
 137   0.0000       1.163864        31.6703 
 138   0.0000       1.173586        31.9349 
 139   0.0000       1.204811        32.7846 
 140   0.0000       1.225178        33.3388 
 141   0.0000       1.261598        34.3298 
 142   0.0000       1.282279        34.8926 
 143   0.0000       1.297186        35.2982 
 144   0.0000       1.320691        35.9378 
 145   0.0000       1.361930        37.0600 
 146   0.0000       1.374631        37.4056 
 147   0.0000       1.385001        37.6878 
 148   0.0000       1.399723        38.0884 
 149   0.0000       1.412152        38.4266 
 150   0.0000       1.414194        38.4822 
 151   0.0000       1.428780        38.8791 
 152   0.0000       1.454857        39.5887 
 153   0.0000       1.458562        39.6895 
 154   0.0000       1.485812        40.4310 
 155   0.0000       1.494191        40.6590 
 156   0.0000       1.524847        41.4932 
 157   0.0000       1.590016        43.2665 
 158   0.0000       1.605499        43.6878 
 159   0.0000       1.664591        45.2958 
 160   0.0000       1.711710        46.5780 
 161   0.0000       1.731175        47.1077 
 162   0.0000       1.747455        47.5507 
 163   0.0000       1.759531        47.8793 
 164   0.0000       1.769694        48.1558 
 165   0.0000       1.782033        48.4916 
 166   0.0000       1.799601        48.9696 
 167   0.0000       1.806161        49.1481 
 168   0.0000       1.838394        50.0252 
 169   0.0000       1.852625        50.4125 
 170   0.0000       1.873901        50.9914 
 171   0.0000       1.889226        51.4084 
 172   0.0000       1.890852        51.4527 
 173   0.0000       1.899882        51.6984 
 174   0.0000       1.915599        52.1261 
 175   0.0000       1.920159        52.2502 
 176   0.0000       1.923109        52.3304 
 177   0.0000       1.931072        52.5471 
 178   0.0000       1.944312        52.9074 
 179   0.0000       1.952246        53.1233 
 180   0.0000       1.984070        53.9893 
 181   0.0000       1.991090        54.1803 
 182   0.0000       2.002425        54.4887 
 183   0.0000       2.013320        54.7852 
 184   0.0000       2.023082        55.0509 
 185   0.0000       2.026462        55.1428 
 186   0.0000       2.041780        55.5597 
 187   0.0000       2.070111        56.3306 
 188   0.0000       2.073304        56.4175 
 189   0.0000       2.109520        57.4030 
 190   0.0000       2.115907        57.5768 
 191   0.0000       2.129500        57.9466 
 192   0.0000       2.158239        58.7287 
 193   0.0000       2.186722        59.5037 
 194   0.0000       2.195614        59.7457 
 195   0.0000       2.222622        60.4806 
 196   0.0000       2.255168        61.3663 
 197   0.0000       2.277524        61.9746 
 198   0.0000       2.285290        62.1859 
 199   0.0000       2.292036        62.3695 
 200   0.0000       2.299350        62.5685 
 201   0.0000       2.319178        63.1080 
 202   0.0000       2.329923        63.4004 
 203   0.0000       2.341274        63.7093 
 204   0.0000       2.364478        64.3407 
 205   0.0000       2.376080        64.6564 
 206   0.0000       2.426063        66.0165 
 207   0.0000       2.429137        66.1002 
 208   0.0000       2.435524        66.2740 
 209   0.0000       2.447006        66.5864 
 210   0.0000       2.459423        66.9243 
 211   0.0000       2.485256        67.6273 
 212   0.0000       2.503830        68.1327 
 213   0.0000       2.517343        68.5004 
 214   0.0000       2.526089        68.7384 
 215   0.0000       2.529270        68.8249 
 216   0.0000       2.573102        70.0177 
 217   0.0000       2.593266        70.5664 
 218   0.0000       2.598726        70.7149 
 219   0.0000       2.600564        70.7649 
 220   0.0000       2.610260        71.0288 
 221   0.0000       2.643501        71.9333 
 222   0.0000       2.658870        72.3515 
 223   0.0000       2.663901        72.4884 
 224   0.0000       2.680198        72.9319 
 225   0.0000       2.691062        73.2275 
 226   0.0000       2.712374        73.8075 
 227   0.0000       2.727129        74.2090 
 228   0.0000       2.745295        74.7033 
 229   0.0000       2.769084        75.3506 
 230   0.0000       2.776238        75.5453 
 231   0.0000       2.789577        75.9083 
 232   0.0000       2.808861        76.4330 
 233   0.0000       2.817628        76.6715 
 234   0.0000       2.838221        77.2319 
 235   0.0000       2.865158        77.9649 
 236   0.0000       2.867478        78.0281 
 237   0.0000       2.894077        78.7518 
 238   0.0000       2.905688        79.0678 
 239   0.0000       2.927908        79.6724 
 240   0.0000       2.993932        81.4690 
 241   0.0000       3.033584        82.5480 
 242   0.0000       3.062580        83.3371 
 243   0.0000       3.085356        83.9568 
 244   0.0000       3.114527        84.7506 
 245   0.0000       3.172591        86.3306 
 246   0.0000       3.195192        86.9456 
 247   0.0000       3.236291        88.0640 
 248   0.0000       3.266669        88.8906 
 249   0.0000       3.305333        89.9427 
 250   0.0000       3.338034        90.8325 
 251   0.0000       3.361609        91.4740 
 252   0.0000       3.399692        92.5103 
 253   0.0000       3.415258        92.9339 
 254   0.0000       3.422827        93.1399 
 255   0.0000       3.468145        94.3730 
 256   0.0000       3.477919        94.6390 
 257   0.0000       3.511924        95.5643 
 258   0.0000       3.535687        96.2109 
 259   0.0000       3.551808        96.6496 
 260   0.0000       3.875775       105.4652 

                    ********************************
                    * MULLIKEN POPULATION ANALYSIS *
                    ********************************

-----------------------
MULLIKEN ATOMIC CHARGES
-----------------------
   0 O :   -0.530296
   1 O :   -0.506014
   2 O :   -0.511442
   3 N :   -0.638242
   4 C :   -0.245518
   5 C :    0.014247
   6 C :    0.077547
   7 C :   -0.133956
   8 C :   -0.142676
   9 C :    0.567760
  10 C :   -0.157115
  11 C :   -0.178429
  12 C :    0.331766
  13 C :   -0.094067
  14 H :    0.128044
  15 H :    0.119888
  16 H :    0.126011
  17 H :    0.117023
  18 H :    0.113331
  19 H :    0.111068
  20 H :    0.126772
  21 H :    0.265824
  22 H :    0.267882
  23 H :    0.371998
  24 H :    0.132946
  25 H :    0.132809
  26 H :    0.132838
Sum of atomic charges:   -0.0000000

--------------------------------
MULLIKEN REDUCED ORBITAL CHARGES
--------------------------------
  0 O s       :     3.861055  s :     3.861055
      pz      :     1.684121  p :     4.640283
      px      :     1.294053
      py      :     1.662109
      dz2     :     0.004362  d :     0.028958
      dxz     :     0.005297
      dyz     :     0.004588
      dx2y2   :     0.006367
      dxy     :     0.008345

  1 O s       :     3.827249  s :     3.827249
      pz      :     1.642007  p :     4.657808
      px      :     1.664707
      py      :     1.351094
      dz2     :     0.005349  d :     0.020957
      dxz     :     0.005165
      dyz     :     0.001997
      dx2y2   :     0.006049
      dxy     :     0.002398

  2 O s       :     3.847853  s :     3.847853
      pz      :     1.486517  p :     4.637973
      px      :     1.462186
      py      :     1.689270
      dz2     :     0.005903  d :     0.025616
      dxz     :     0.005044
      dyz     :     0.004622
      dx2y2   :     0.004994
      dxy     :     0.005055

  3 N s       :     3.614924  s :     3.614924
      pz      :     1.610613  p :     3.994785
      px      :     1.160323
      py      :     1.223849
      dz2     :     0.005831  d :     0.028534
      dxz     :     0.008276
      dyz     :     0.001688
      dx2y2   :     0.009947
      dxy     :     0.002793

  4 C s       :     3.234826  s :     3.234826
      pz      :     0.983231  p :     2.972794
      px      :     0.942410
      py      :     1.047154
      dz2     :     0.009399  d :     0.037898
      dxz     :     0.008970
      dyz     :     0.003456
      dx2y2   :     0.010688
      dxy     :     0.005385

  5 C s       :     3.179916  s :     3.179916
      pz      :     1.006967  p :     2.748957
      px      :     0.846009
      py      :     0.895981
      dz2     :     0.012805  d :     0.056879
      dxz     :     0.014142
      dyz     :     0.004629
      dx2y2   :     0.016018
      dxy     :     0.009286

  6 C s       :     3.133555  s :     3.133555
      pz      :     0.946761  p :     2.747306
      px      :     0.898089
      py      :     0.902457
      dz2     :     0.006021  d :     0.041591
      dxz     :     0.007415
      dyz     :     0.005986
      dx2y2   :     0.011236
      dxy     :     0.010933

  7 C s       :     3.192697  s :     3.192697
      pz      :     0.992508  p :     2.905519
      px      :     0.957407
      py      :     0.955604
      dz2     :     0.003409  d :     0.035741
      dxz     :     0.007164
      dyz     :     0.005840
      dx2y2   :     0.009335
      dxy     :     0.009992

  8 C s       :     3.194952  s :     3.194952
      pz      :     0.972675  p :     2.911930
      px      :     0.953055
      py      :     0.986200
      dz2     :     0.004391  d :     0.035795
      dxz     :     0.007345
      dyz     :     0.004884
      dx2y2   :     0.009654
      dxy     :     0.009522

  9 C s       :     2.998300  s :     2.998300
      pz      :     0.712691  p :     2.314677
      px      :     0.714267
      py      :     0.887718
      dz2     :     0.025184  d :     0.119263
      dxz     :     0.021810
      dyz     :     0.022375
      dx2y2   :     0.026962
      dxy     :     0.022931

 10 C s       :     3.188223  s :     3.188223
      pz      :     1.007220  p :     2.935713
      px      :     0.953976
      py      :     0.974518
      dz2     :     0.004085  d :     0.033179
      dxz     :     0.007117
      dyz     :     0.004381
      dx2y2   :     0.008035
      dxy     :     0.009561

 11 C s       :     3.177849  s :     3.177849
      pz      :     1.023682  p :     2.967510
      px      :     0.995634
      py      :     0.948194
      dz2     :     0.003254  d :     0.033070
      dxz     :     0.006585
      dyz     :     0.005403
      dx2y2   :     0.008676
      dxy     :     0.009151

 12 C s       :     3.067457  s :     3.067457
      pz      :     0.943002  p :     2.529518
      px      :     0.690127
      py      :     0.896390
      dz2     :     0.008913  d :     0.071258
      dxz     :     0.015211
      dyz     :     0.007794
      dx2y2   :     0.019881
      dxy     :     0.019460

 13 C s       :     3.201748  s :     3.201748
      pz      :     0.954973  p :     2.837860
      px      :     0.918952
      py      :     0.963936
      dz2     :     0.013581  d :     0.054459
      dxz     :     0.009315
      dyz     :     0.009669
      dx2y2   :     0.009564
      dxy     :     0.012330

 14 H s       :     0.860317  s :     0.860317
      pz      :     0.002274  p :     0.011639
      px      :     0.002180
      py      :     0.007186

 15 H s       :     0.868680  s :     0.868680
      pz      :     0.006186  p :     0.011432
      px      :     0.002630
      py      :     0.002616

 16 H s       :     0.863008  s :     0.863008
      pz      :     0.006431  p :     0.010981
      px      :     0.002245
      py      :     0.002305

 17 H s       :     0.870558  s :     0.870558
      pz      :     0.004200  p :     0.012419
      px      :     0.004428
      py      :     0.003791

 18 H s       :     0.874342  s :     0.874342
      pz      :     0.003415  p :     0.012327
      px      :     0.002334
      py      :     0.006578

 19 H s       :     0.876476  s :     0.876476
      pz      :     0.003521  p :     0.012455
      px      :     0.002309
      py      :     0.006626

 20 H s       :     0.860261  s :     0.860261
      pz      :     0.004444  p :     0.012968
      px      :     0.004319
      py      :     0.004206

 21 H s       :     0.710747  s :     0.710747
      pz      :     0.010064  p :     0.023429
      px      :     0.008063
      py      :     0.005303

 22 H s       :     0.708624  s :     0.708624
      pz      :     0.006668  p :     0.023494
      px      :     0.004199
      py      :     0.012627

 23 H s       :     0.591039  s :     0.591039
      pz      :     0.006884  p :     0.036963
      px      :     0.007091
      py      :     0.022988

 24 H s       :     0.856095  s :     0.856095
      pz      :     0.002054  p :     0.010959
      px      :     0.006067
      py      :     0.002837

 25 H s       :     0.855969  s :     0.855969
      pz      :     0.002654  p :     0.011222
      px      :     0.002218
      py      :     0.006350

 26 H s       :     0.855940  s :     0.855940
      pz      :     0.006833  p :     0.011222
      px      :     0.002291
      py      :     0.002097


------------------------
MULLIKEN OVERLAP CHARGES
------------------------
B(  0-O , 10-C ) :  -0.1016 B(  0-O , 11-C ) :  -0.1322 B(  0-O , 12-C ) :   0.5893 
[...]
 9 C  dz2             0.0       0.5       0.0
 9 C  dxz             0.0       0.3       0.0
 9 C  dyz             0.0       0.1       0.0
 9 C  dx2y2           0.0       0.8       0.0
 9 C  dxy             0.0       0.2       0.0
10 C  s               0.8       0.0       0.2
10 C  pz              0.1       0.0       0.1
10 C  px              0.4       0.1       0.1
10 C  py              0.8       0.0       0.7
10 C  dz2             0.4       0.0       0.1
10 C  dxz             0.8       0.0       2.0
10 C  dyz             2.0       0.3       2.1
10 C  dx2y2           2.4       0.4       5.6
10 C  dxy             2.3       0.0       1.9
11 C  s               0.9       0.0       0.3
11 C  pz              0.4       0.0       0.3
11 C  px              0.9       0.1       0.5
11 C  py              0.3       0.0       0.2
11 C  dz2             0.0       0.0       0.3
11 C  dxz             3.2       0.0       3.1
11 C  dyz             1.5       0.2       1.4
11 C  dx2y2           0.1       0.1       0.0
11 C  dxy             3.9       0.1       6.8
12 C  py              0.1       0.0       0.0
12 C  dz2             0.0       0.0       0.7
12 C  dxz             0.2       0.1       0.0
12 C  dyz             0.0       0.0       1.3
12 C  dx2y2           0.1       0.1       3.3
12 C  dxy             0.4       0.1       1.8
13 C  dx2y2           0.1       0.0       0.0
14 H  s               0.1       3.1       0.0
14 H  py              0.4      10.7       0.1
15 H  s               0.1       4.0       0.1
15 H  pz              0.4      12.3       0.2
15 H  px              0.1       1.1       0.0
15 H  py              0.0       1.1       0.0
16 H  s               0.1       3.0       0.0
16 H  pz              0.2      10.1       0.0
16 H  px              0.0       1.0       0.0
16 H  py              0.0       1.2       0.0
17 H  s               2.5       0.1       2.1
17 H  pz              3.7       0.0       1.8
17 H  px              2.7       0.4       2.2
17 H  py              4.6       0.0       1.6
18 H  s               2.3       0.0       2.0
18 H  pz              2.2       0.0       0.9
18 H  px              0.2       0.2       0.5
18 H  py              7.4       0.1       4.0
19 H  s               2.4       0.1       2.1
19 H  pz              2.2       0.0       0.9
19 H  px              0.4       0.2       0.7
19 H  py              7.5       0.2       4.0
20 H  s               2.7       0.1       2.1
20 H  pz              3.8       0.1       1.8
20 H  px              3.7       0.3       2.3
20 H  py              4.3       0.0       1.7
21 H  py              0.0       0.1       0.0
22 H  px              0.0       0.2       0.0
23 H  s               0.1       1.6       0.0
23 H  py              0.1       3.2       0.0


                      *****************************
                      * MAYER POPULATION ANALYSIS *
                      *****************************

  NA   - Mulliken gross atomic population
  ZA   - Total nuclear charge
  QA   - Mulliken gross atomic charge
  VA   - Mayer's total valence
  BVA  - Mayer's bonded valence
  FA   - Mayer's free valence

  ATOM       NA         ZA         QA         VA         BVA        FA
  0 O      8.5334     8.0000    -0.5334     1.9669     1.9669    -0.0000
  1 O      8.4911     8.0000    -0.4911     2.0355     2.0355    -0.0000
  2 O      8.5146     8.0000    -0.5146     2.0159     2.0159     0.0000
  3 N      7.6317     7.0000    -0.6317     2.8215     2.8215    -0.0000
  4 C      6.2453     6.0000    -0.2453     3.8714     3.8714    -0.0000
  5 C      5.9926     6.0000     0.0074     3.8305     3.8305    -0.0000
  6 C      5.9165     6.0000     0.0835     3.9460     3.9460    -0.0000
  7 C      6.1444     6.0000    -0.1444     3.9424     3.9424    -0.0000
  8 C      6.1509     6.0000    -0.1509     3.9407     3.9407    -0.0000
  9 C      5.4368     6.0000     0.5632     3.9357     3.9357    -0.0000
 10 C      6.1494     6.0000    -0.1494     3.8973     3.8973    -0.0000
 11 C      6.1660     6.0000    -0.1660     3.8745     3.8745    -0.0000
 12 C      5.6759     6.0000     0.3241     3.8454     3.8454    -0.0000
 13 C      6.0933     6.0000    -0.0933     3.7887     3.7887    -0.0000
 14 H      0.8701     1.0000     0.1299     0.9520     0.9520    -0.0000
 15 H      0.8783     1.0000     0.1217     0.9574     0.9574    -0.0000
 16 H      0.8810     1.0000     0.1190     0.9501     0.9501    -0.0000
 17 H      0.8877     1.0000     0.1123     0.9606     0.9606    -0.0000
 18 H      0.8882     1.0000     0.1118     0.9572     0.9572    -0.0000
 19 H      0.8874     1.0000     0.1126     0.9595     0.9595    -0.0000
 20 H      0.8739     1.0000     0.1261     0.9589     0.9589    -0.0000
 21 H      0.7296     1.0000     0.2704     0.9054     0.9054    -0.0000
 22 H      0.7276     1.0000     0.2724     0.9074     0.9074    -0.0000
 23 H      0.6322     1.0000     0.3678     0.8790     0.8790    -0.0000
 24 H      0.8633     1.0000     0.1367     0.9517     0.9517    -0.0000
 25 H      0.8694     1.0000     0.1306     0.9475     0.9475    -0.0000
 26 H      0.8693     1.0000     0.1307     0.9474     0.9474    -0.0000

  Mayer bond orders larger than 0.100000
B(  0-O , 12-C ) :   0.9453 B(  0-O , 13-C ) :   0.8954 B(  1-O ,  9-C ) :   1.1145 
B(  1-O , 23-H ) :   0.8262 B(  2-O ,  9-C ) :   1.8664 B(  3-N ,  5-C ) :   0.9998 
B(  3-N , 21-H ) :   0.8984 B(  3-N , 22-H ) :   0.8945 B(  4-C ,  5-C ) :   0.9615 
B(  4-C ,  6-C ) :   0.9887 B(  4-C , 14-H ) :   0.9368 B(  4-C , 15-H ) :   0.9366 
B(  5-C ,  9-C ) :   0.9207 B(  5-C , 16-H ) :   0.9308 B(  6-C ,  7-C ) :   1.4040 
B(  6-C ,  8-C ) :   1.4417 B(  7-C , 10-C ) :   1.4519 B(  7-C , 17-H ) :   0.9331 
B(  8-C , 11-C ) :   1.4051 B(  8-C , 18-H ) :   0.9358 B( 10-C , 12-C ) :   1.3779 
B( 10-C , 19-H ) :   0.9323 B( 11-C , 12-C ) :   1.3773 B( 11-C , 20-H ) :   0.9263 
B( 13-C , 24-H ) :   0.9614 B( 13-C , 25-H ) :   0.9454 B( 13-C , 26-H ) :   0.9454 


-------
TIMINGS
-------

Total SCF time: 0 days 0 hours 0 min 44 sec 

Total time                  ....      44.545 sec
Sum of individual times     ....      41.751 sec  ( 93.7%)

SCF preparation             ....       0.606 sec  (  1.4%)
Fock matrix formation       ....      40.556 sec  ( 91.0%)
  Startup                   ....       0.005 sec  (  0.0% of F)
  Split-RI-J                ....       3.565 sec  (  8.8% of F)
  Chain of spheres X        ....      30.553 sec  ( 75.3% of F)
  XC integration            ....       5.227 sec  ( 12.9% of F)
    Basis function eval.    ....       2.141 sec  ( 41.0% of XC)
    Density eval.           ....       1.193 sec  ( 22.8% of XC)
    XC-Functional eval.     ....       0.298 sec  (  5.7% of XC)
    XC-Potential eval.      ....       1.251 sec  ( 23.9% of XC)
  CPCM terms                ....       3.872 sec  (  9.5% of F)
Diagonalization             ....       0.000 sec  (  0.0%)
Density matrix formation    ....       0.025 sec  (  0.1%)
Total Energy calculation    ....       0.014 sec  (  0.0%)
Population analysis         ....       0.321 sec  (  0.7%)
Orbital Transformation      ....       0.035 sec  (  0.1%)
Orbital Orthonormalization  ....       0.000 sec  (  0.0%)
DIIS solution               ....       0.144 sec  (  0.3%)
  MO trafo                  ....       0.000 sec  (  0.0 % of DIIS)
  Orb grad                  ....       0.000 sec  (  0.0 % of DIIS)
  Energy W gradient         ....       0.000 sec  (  0.0 % of DIIS)
  DIIS error                ....       0.030 sec  ( 20.9 % of DIIS)
  DIIS work                 ....       0.092 sec  ( 63.5 % of DIIS)
  Form Q                    ....       0.000 sec  (  0.0 % of DIIS)
  Form QpQm                 ....       0.000 sec  (  0.0 % of DIIS)
  Exp/Cayley                ....       0.000 sec  (  0.0 % of DIIS)
  Orb update                ....       0.000 sec  (  0.0 % of DIIS)
  Wake-sleep                ....       0.004 sec  (  3.1 % of DIIS)
SOSCF solution              ....       0.050 sec  (  0.1%)
  MO trafo                  ....       0.025 sec  ( 49.7 % of SOSCF)
  Orb grad                  ....       0.001 sec  (  2.5 % of SOSCF)
  Rot update                ....       0.002 sec  (  4.1 % of SOSCF)
  Step                      ....       0.019 sec  ( 38.9 % of SOSCF)
Finished LeanSCF after  44.7 sec

Maximum memory used throughout the entire LEANSCF-calculation: 45.1 MB


-------------------------------------------------------------------------------
                          DFT DISPERSION CORRECTION                            
                                                                               
                              DFTD3 V3.1  Rev 1                                
                          USING Becke-Johnson damping                          
-------------------------------------------------------------------------------
The B3LYP functional is recognized
Active option DFTDOPT                   ...         4   

molecular C6(AA) [au] = 7135.346936 


            DFT-D V3
 parameters
 s6 scaling factor         :     1.0000 
 a1 scaling factor         :     0.3981 
 s8 scaling factor         :     1.9889 
 a2 scaling factor         :     4.4211 
 ad hoc parameters k1-k3   :    16.0000     1.3333    -4.0000 

 Edisp/kcal,au: -31.284376640102  -0.049854822271 
 E6   /kcal   : -14.926811751 
 E8   /kcal   : -16.357564890 
 % E8         :  52.286689544 

-------------------------   ----------------
Dispersion correction           -0.049854822
-------------------------   ----------------


-------------------------   --------------------
FINAL SINGLE POINT ENERGY      -669.005499854765
-------------------------   --------------------

                                *** OPTIMIZATION RUN DONE ***



           ************************************************************
           *        Program running with 2 parallel MPI-processes     *
           *              working on a common directory               *
           ************************************************************

------------------------------------------------------------------------------
                              ORCA PROPERTY CALCULATIONS
------------------------------------------------------------------------------

GBWName                                 ... /kaggle/working/Phe-OMe-1/Phe-OMe_InterFrag.gbw
Number of atoms                         ...     27
Number of basis functions               ...    261
Max core memory                         ...   3000 MB

Electric properties:
Dipole moment                           ... YES
Quadrupole moment                       ...  NO
Static polarizability (Dipole/Dipole)   ...  NO
Static polarizability (Dipole/Quad.)    ...  NO
Static polarizability (Quad./Quad.)     ...  NO
Static polarizability (Velocity)        ...  NO
Static hyperpolarizability              ...  NO

Atomic electric properties:
Dipole moment                           ...  NO
Quadrupole moment                       ...  NO
Static polarizability                   ...  NO

Choice of electric origin               ... Center of mass
Position of electric origin             ...     0.075464    -0.033759     0.072023

General magnetic properties:
Magnetizability                         ...  NO

EPR properties:
g-Tensor (aka g-matrix)                 ...  NO
Zero-Field splitting spin-orbit         ...  NO
Zero-field splitting spin-spin          ...  NO
Hyperfine couplings                     ...  NO (   0 nuclei)
Quadrupole couplings                    ...  NO (   0 nuclei)
Contact density                         ...  NO (   0 nuclei)

NMR properties:
Chemical shifts                         ...  NO (   0 nuclei)
Spin-rotation constants                 ...  NO (   0 nuclei)
Spin-spin couplings                     ...  NO (   0 nuclei,    0 pairs)

Choice of magnetic origin               ... GIAO
Position of magnetic origin             ...     0.000000     0.000000     0.000000

Properties with geometric perturbations:
SCF Hessian                             ...  NO
IR spectrum                             ...  NO
VCD spectrum                            ...  NO
X-ray spectroscopy properties:
SCF XES/XAS/RIXS spectra                ...  NO

SCF SOC stabilization energy            ...  NO
Diagonal Born-Oppenheimer correction    ...  NO

-------------
DIPOLE MOMENT
-------------

Method             : SCF
Type of density    : Electron Density
Multiplicity       :   1
Irrep              :   0
Energy             :  -668.9556450324936350 Eh
Basis              : AO
                                X                 Y                 Z
Electronic contribution:      3.034995570      -5.043632503      -0.727927847
Nuclear contribution   :     -4.032254552       6.293142652       2.314920764
                        -----------------------------------------
Total Dipole Moment    :     -0.997258982       1.249510150       1.586992917
                        -----------------------------------------
Magnitude (a.u.)       :      2.252631264
Magnitude (Debye)      :      5.725733641



--------------------
Rotational spectrum 
--------------------
 
Rotational constants in cm-1:             0.053414             0.011294             0.010505 
Rotational constants in MHz :          1601.319510           338.593755           314.929603 

Dipole components along the rotational axes: 
x,y,z [a.u.] :    -0.988258    -1.233110     1.605345 
x,y,z [Debye]:    -2.511952    -3.134317     4.080463 

 

Dipole moment calculation done in   0.0 sec 

Maximum memory used throughout the entire PROP-calculation: 15.6 MB

--------------------------------
SUGGESTED CITATIONS FOR THIS RUN
--------------------------------

Below you find a list of papers that are relevant to this ORCA run
We neither can nor want to force you to cite these papers, but we appreciate if you do
You receive ORCA, which is the product of decades of hard work by many enthusiastic individuals, for free
The only thing we kindly ask in return is that you cite our papers,
We deeply appreciate it, if you show your appreciation for ORCA by not just citing the generic ORCA reference.

Please note that relegating all ORCA citations to the supporting information does *not* help us.
SI sections are not indexed - citations you put there will not count into any citation statistics
But we need these citations in order to attract the funding resources that allow us to do what we are doing

Therefore, if you are a happy ORCA user, please consider citing a few of the papers listed below in the main body of your paper

In addition to the list printed below, the program has created the file /kaggle/working/Phe-OMe-1/Phe-OMe_InterFrag.bibtex that contains the list in bibtex format
You can import this file easily into all common literature databanks and citation aid programs

It goes without saying that in many instances, there are alternative algorithms to achieve similar
results as the ones you have gotten from ORCA. It is, of course, also the case that in some instances
ORCA just re-implements algorithms worked out by others. We are fully aware of that and we are also
fully appreciative of our colleagues work. Hence this citation list should not be read as indicating
that the listed papers, which are focused on our own work, are the only ones worth citing. It simply
meant to make it easier for users to cite ORCA specific papers. It is not a substitute for doing your
own literature research and citing the relevant literature in a scientifically appropriate manner.

List of essential papers. We consider these as the minimum necessary citations

  1. Neese, F.
     Software update: the ORCA program system, version 6.0
     WIRES Comput. Molec. Sci. 2025 15(1), e70019
     doi.org/10.1002/wcms.70019

List of papers to cite with high priority. The work reported in these papers was absolutely
necessary for this run to complete.
Our perspective: the developers of density functionals and basis sets usually get cited in chemistry papers
Good! But without the algorithms to do something with them, the functionals or basis sets would not do anything.
Hence, in our opinion, the algorithm design and method developments papers are equally worthy of getting cited

  1. Neese, F.
     An improvement of the resolution of the identity approximation for the formation of the Coulomb matrix
     J. Comp. Chem. 2003 24(14), 1740-1747
     doi.org/10.1002/jcc.10318
  2. Neese, F.; Wennmohs, F.; Hansen, A.; Becker, U.
     Efficient, approximate and parallel Hartree-Fock and hybrid DFT calculations. A 'chain-of-spheres' algorithm for the Hartree-Fock exchange
     Chem. Phys. 2009 356(1-3), 98-109
     doi.org/10.1016/j.chemphys.2008.10.036
  3. Grimme, S.; Antony, J.; Ehrlich, S.; Krieg, H.
     A consistent and accurate ab initio parametrization of density functional dispersion correction (DFT-D) for the 94 elements H-Pu
     J. Chem. Phys. 2010 132 , 154104
     doi.org/10.1063/1.3382344
  4. Grimme, S.; Ehrlich, S.; Goerigk, L.
     Effect of the damping function in dispersion corrected density functional theory
     J. Comput. Chem. 2011 32(7), 1456-1465
     doi.org/10.1002/jcc.21759
  5. Garcia-Rates, M.; Neese, F.
     Effect of the Solute Cavity on the Solvation Energy and its Derivatives within the Framework of the Gaussian Charge Scheme
     J. Comput. Chem. 2020 41 , 922-939
     doi.org/10.1002/jcc.26139
  6. Helmich-Paris, B.; de Souza, B.; Neese, F.; Izsák, R.
     An improved chain of spheres for exchange algorithm
     J. Chem. Phys. 2021 155(10), 104109
     doi.org/10.1063/5.0058766
  7. Neese, F.
     The SHARK Integral Generation and Digestion System
     J. Comp. Chem. 2022 44(3), 381
     doi.org/10.1002/jcc.26942

List of suggested additional citations. These are papers that are important in the 'surrounding' of 
of this run, or papers that preceded the highly important papers. If you like your results we are grateful for a citation.

  1. Izsak, R.; Neese, F.
     An overlap fitted chain of spheres exchange method
     J. Chem. Phys. 2011 135 , 144105
     doi.org/10.1063/1.3646921
  2. Izsak, R.; Hansen, A.; Neese, F.
     The resolution of identity and chain of spheres approximations for the LPNO-CCSD singles Fock term
     Molec. Phys. 2012 110 , 2413-2417
     doi.org/10.1080/00268976.2012.687466
  3. Neese, F.
     The ORCA program system
     WIRES Comput. Molec. Sci. 2012 2(1), 73-78
     doi.org/10.1002/wcms.81
  4. Izsak, R.; Neese, F.; Klopper, W.
     Robust fitting techniques in the chain of spheres approximation to the Fock exchange: The role of the complementary space
     J. Chem. Phys. 2013 139 , 
     doi.org/10.1063/1.4819264
  5. Neese, F.
     Software update: the ORCA program system, version 4.0
     WIRES Comput. Molec. Sci. 2018 8(1), 1-6
     doi.org/10.1002/wcms.1327
  6. Neese, F.; Wennmohs, F.; Becker, U.; Riplinger, C.
     The ORCA quantum chemistry program package
     J. Chem. Phys. 2020 152(22), 224108
     doi.org/10.1063/5.0004608
  7. Neese, F.
     Software update: The ORCA program system—Version 5.0
     WIRES Comput. Molec. Sci. 2022 12(1), e1606
     doi.org/10.1002/wcms.1606

List of optional additional citations

  1. Neese, F.
     Approximate second-order SCF convergence for spin unrestricted wavefunctions
     Chem. Phys. Lett. 2000 325(1-3), 93-98
     doi.org/10.1016/s0009-2614(00)00662-x

Timings for individual modules:

Sum of individual times          ...      942.454 sec (=  15.708 min)
Startup calculation              ...       32.253 sec (=   0.538 min)   3.4 %
SCF iterations                   ...      587.084 sec (=   9.785 min)  62.3 %
Property calculations            ...        0.430 sec (=   0.007 min)   0.0 %
SCF Gradient evaluation          ...      322.596 sec (=   5.377 min)  34.2 %
Geometry relaxation              ...        0.091 sec (=   0.002 min)   0.0 %
                             ****ORCA TERMINATED NORMALLY****
TOTAL RUN TIME: 0 days 0 hours 15 minutes 47 seconds 140 msec
