
                                 *****************
                                 * O   R   C   A *
                                 *****************

                                            #,                                       
                                            ###                                      
                                            ####                                     
                                            #####                                    
                                            ######                                   
                                           ########,                                 
                                     ,,################,,,,,                         
                               ,,#################################,,                 
                          ,,##########################################,,             
                       ,#########################################, ''#####,          
                    ,#############################################,,   '####,        
                  ,##################################################,,,,####,       
                ,###########''''           ''''###############################       
              ,#####''   ,,,,##########,,,,          '''####'''          '####       
            ,##' ,,,,###########################,,,                        '##       
           ' ,,###''''                  '''############,,,                           
         ,,##''                                '''############,,,,        ,,,,,,###''
      ,#''                                            '''#######################'''  
     '                                                          ''''####''''         
             ,#######,   #######,   ,#######,      ##                                
            ,#'     '#,  ##    ##  ,#'     '#,    #''#        ,####,    ,#,          
            ##       ##  ##   ,#'  ##            #'  '#       #'       ,# #          
            ##       ##  #######   ##           ,######,      #####,      #          
            '#,     ,#'  ##    ##  '#,     ,#' ,#      #,     #,   #      #          
             '#######'   ##     ##  '#######'  #'      '#     '####' #    #          



                #########################################################
                #                        -***-                          #
                #          Department of theory and spectroscopy        #
                #                                                       #
                #                      Frank Neese                      #
                #                                                       #
                #     Directorship, Architecture, Infrastructure        #
                #                    SHARK, DRIVERS                     #
                #        Core code/Algorithms in most modules           #
                #                                                       #
                #        Max Planck Institute fuer Kohlenforschung      #
                #                Kaiser Wilhelm Platz 1                 #
                #                 D-45470 Muelheim/Ruhr                 #
                #                      Germany                          #
                #                                                       #
                #                  All rights reserved                  #
                #                        -***-                          #
                #########################################################


                         Program Version 6.1.1  -  RELEASE   -
                                (GIT: $487d211c$)
                          ($2025-11-21 10:33:24 +0100$)
                                                                         
                                  - NO-DMRG VERSION -                    
                                                                         


 With contributions from (in alphabetic order):
[Max-Planck-Institut fuer Kohlenforschung]                               
  Daniel Aravena         : Magnetic Suceptibility                        
  Michael Atanasov       : Ab Initio Ligand Field Theory (pilot matlab implementation)
  Alexander A. Auer      : GIAO ZORA, VPT2 properties, NMR spectrum      
  Ute Becker             : All parallelization in ORCA, NUMFREQ, NUMCALC 
  Giovanni Bistoni       : ED, misc. LED, open-shell LED, HFLD           
  Dmytro Bykov           : pre 5.0 version of the SCF Hessian            
  Marcos Casanova-Páez   : Triplet and SCS-CIS(D). UHF-(DLPNO)-IP/EA/STEOM-CCSD. UHF-CVS-IP/STEOM-CCSD   
  Vijay G. Chilkuri      : MRCI spin determinant printing, contributions to CSF-ICE 
  Pauline Colinet        : FMM embedding                                 
  Dipayan Datta          : RHF DLPNO-CCSD density                        
  Achintya Kumar Dutta   : EOM-CC, STEOM-CC                              
  Nicolas Foglia         : Exact transition moments, OPA infrastructure, MCD improvements    
  Dmitry Ganyushin       : Spin-Orbit,Spin-Spin,Magnetic field MRCI      
  Miquel Garcia-Rates    : C-PCM and meta-GGA Hessian, CCSD/C-PCM, Gaussian charge scheme 
  Tiago L. C. Gouveia    : GS-ROHF, GS-ROCIS                             
  Yang Guo               : DLPNO-NEVPT2, F12-NEVPT2, CIM, IAO-localization        
  Andreas Hansen         : Spin unrestricted coupled pair/coupled cluster methods 
  Ingolf Harden          : AUTO-CI MPn and infrastructure                
  Benjamin Helmich-Paris : MC-RPA, TRAH-(SCF,CASSCF), AVAS, COSX integrals, SCF dyn. polar., MC-PDFT, srDFT 
  Lee Huntington         : MR-EOM, pCC                                   
  Robert Izsak           : Overlap fitted RIJCOSX, COSX-SCS-MP3, EOM     
  Riya Kayal             : Wick's Theorem for AUTO-CI, AUTO-CI UHF-CCSDT 
  Emily Kempfer          : AUTO-CI RHF CISDT and CCSDT, approximate NEVPT4
  Christian Kollmar      : KDIIS, OOCD, Brueckner-CCSD(T), CCSD density, CASPT2, CASPT2-K, improved NEVPT2 
  Axel Koslowski         : Symmetry handling                             
  Simone Kossmann        : meta-GGA functionals, TD-DFT gradient, OOMP2, (MP2 Hessian; deprecated post 5.0) 
  Lucas Lang             : DCDCAS, Hyperfine gauge corrections, ICE-SOC+SSC
  Marvin Lechner         : AUTO-CI (C++ implementation), FIC-MRCC        
  Spencer Leger          : CASSCF response                               
  Dagmar Lenk            : GEPOL surface, SMD, ORCA-2-JSON               
  Dimitrios Liakos       : Extrapolation schemes; Compound Job, Property file
  Dimitrios Manganas     : Further ROCIS development; embedding schemes. LFT, Crystal Embedding 
  Dimitrios Pantazis     : SARC Basis sets                               
  Anastasios Papadopoulos: AUTO-CI, single reference methods and gradients 
  Taras Petrenko         : pre 6.0 DFT Hessian and TD-DFT gradient,  ECA, NRVS 
  Petra Pikulova         : Analytic Raman intensities                    
  Peter Pinski           : DLPNO-MP2, DLPNO-MP2 Gradient                 
  Shashank Vittal Rao    : ES-AILFT, MagRelax                            
  Christoph Reimann      : Effective Core Potentials                     
  Marius Retegan         : Local ZFS, SOC                                
  Christoph Riplinger    : Optimizer, TS searches, QM/MM, DLPNO-CCSD(T), (RO)-DLPNO pert. Triples 
  Michael Roemelt        : Original ROCIS implementation, recursive CI coupling coefficients
  Masaaki Saitow         : Open-shell DLPNO-CCSD energy and density      
  Barbara Sandhoefer     : DKH picture change effects                    
  Yorick L. A. Schmerwitz: GMF and freeze-and-release deltaSCF, NEB S-IDPP initial path                    
  Kantharuban Sivalingam : CASSCF convergence/infrastructure, NEVPT2, NEVPT3, NEVPT4(SD), FIC-MRCI and CEPA variants
  Bernardo de Souza      : ESD, SOC TD-DFT                               
  Georgi L. Stoychev     : AutoAux, RI-MP2 NMR, DLPNO-MP2 response, X2C  
  Van Anh Tran           : RI-MP2 g-tensors                              
  Willem Van den Heuvel  : Paramagnetic NMR                              
  Zikuan Wang            : NOTCH, Electric field optimization            
  Frank Wennmohs         : Technical directorship and infrastructure     
  Hang Xu                : AUTO-CI-Response properties                   
                                                                         
[FACCTs GmbH]                                                            
  Markus Bursch, Nicolas Foglia, Miquel Garcia-Rates, Ingolf Harden, Hagen Neugebauer, Anastasios Papadopoulos, 
  Christoph Riplinger, Bernardo de Souza, Georgi L. Stoychev                                                    
                                                                 
  APM, various basis sets, CI-OPT, improved COSX, DLPNO-Multilevel,           
  DOCKER, DRACO, updates on ESD, Fragmentator, GOAT, IRC, LR-CPCM, L-BFGS, MBIS, meta-GGA TD-DFT gradient, ML-optimized integration grids, 
  MM, NACMEs, nearIR, NEB, NEB-TS, NL-DFT gradient (VV10), 2- and 3-layer-ONIOM, interface openCOSMO-RS, QMMM,   
  Crystal-QMMM, RESP, rigid body optimization, SF, symmetry and pop. for TD-DFT, various functionals, SOLVATOR                                   
                                                                         
[Other institutions]                                                     
  V. Asgeirsson          : NEB                                           
  Christoph Bannwarth    : sTDA-DFT, sTD-DFT, PBEh-3c, B97-3c, D3        
  Giovanni Bistoni       : ETS/NOCV, ADLD/ADEX, COVALED                  
  Martin Brehm           : Molecular dynamics                            
  Ronald Cardenas        : ETS/NOCV                                      
  Martina Colucci        : COVALED                                       
  Sebastian Ehlert       : rSCAN, r2SCAN, r2SCAN-3c, D4, dhf basis sets  
  Marvin Friede          : D4 for Fr, Ra, Ac-Lr                          
  Lars Goerigk           : TD-DFT with DH, B97 family of functionals     
  Stefan Grimme          : VdW corrections, initial TS optimization, DFT functionals, gCP, sTDA/sTD-DF 
  Waldemar Hujo          : DFT-NL                                        
  H. Jonsson             : NEB                                           
  Holger Kruse           : gCP                                           
  Marcel Mueller         : wB97X-3c, vDZP basis set                      
  Hagen Neugebauer       : wr2SCAN, Native XTB                           
  Gianluca Regni         : ADLD/ADEX                                     
  Tobias Risthaus        : pre 6.0 range-separated hybrid DFT and stability analysis
  Lukas Wittmann         : regularized MP2, r2SCAN double-hybrids, wr2SCAN        
                                                                         
We gratefully acknowledge several colleagues who have allowed us to      
interface, adapt or use parts of their codes:                            
  Ed Valeev, F. Pavosevic, A. Kumar             : LibInt (2-el integral package), F12 methods 
  Garnet Chan, S. Sharma, J. Yang, R. Olivares  : DMRG                   
  Ulf Ekstrom                                   : XCFun DFT Library      
  Mihaly Kallay                                 : mrcc  (arbitrary order and MRCC methods)
  Frank Weinhold                                : gennbo (NPA and NBO analysis)           
  Simon Mueller                                 : openCOSMO-RS                            
  Christopher J. Cramer and Donald G. Truhlar   : smd solvation model                     
  S Lehtola, MJT Oliveira, MAL Marques          : LibXC Library                           
  Liviu Ungur et al                             : ANISO software                          


 Your calculation uses the libint2 library for the computation of 2-el integrals
 For citations please refer to: http://libint.valeyev.net

 Your ORCA version has been built with support for libXC version: 7.0.0
 For citations please refer to: https://libxc.gitlab.io

 This ORCA versions uses:
   CBLAS   interface :  Fast vector & matrix operations
   LAPACKE interface :  Fast linear algebra routines
   SCALAPACK package :  Parallel linear algebra routines
   Shared memory     :  Shared parallel matrices
   BLAS/LAPACK       :  OpenBLAS 0.3.29  USE64BITINT DYNAMIC_ARCH NO_AFFINITY SkylakeX SINGLE_THREADED
        Core in use  :  SkylakeX
   Copyright (c) 2011-2014, The OpenBLAS Project


  ***********************************
  * Starting time: Tue Mar 24 19:18:53 2026
  * Host name:     821283020b77
  * Process ID:    607
  * Working dir.:  /kaggle/working
  ***********************************

NOTE: MaxCore=3000 MB was set to SCF,MP2,MDCI,CIPSI,MRCI,RASCI and CIS
      => If you want to overwrite this, your respective input block should be placed after the MaxCore statement
Your calculation utilizes the atom-pairwise dispersion correction
with the Becke-Johnson damping scheme (D3BJ)


Warning: RI is on but no J-basis has been assigned. Assigning Def2/J (nothing to worry about!)
================================================================================

----- Orbital basis set information -----
Your calculation utilizes the basis: 6-31G(d,p)
   H-He, Li-Ne : W. J. Hehre, R. Ditchfield and J.A. Pople, J. Chem. Phys. 56, 2257 (1972).
                 Note: He and Ne are unpublished basis sets taken from the Gaussian program.
                 Note: Li and B from J. D. Dill and J. A. Pople, J. Chem. Phys. 62, 2921 (1975).
   Na - Ar     : M. M. Francl, W. J. Pietro, W. J. Hehre, J. S. Binkley, M. S. Gordon, 
                 D. J. DeFrees and J. A. Pople, J. Chem. Phys. 77, 3654 (1982).
   K - Zn      : V. A. Rassolov, J. A. Pople, M. A. Ratner, and T. L. Windus, J. Chem. Phys. 109, 1223 (1998).

----- AuxJ basis set information -----
Your calculation utilizes the auxiliary basis: def2/J
   H-Rn: F. Weigend, Phys. Chem. Chem. Phys. 8, 1057 (2006).
   Fr-Lr: K. Eichkorn, F. Weigend, O. Treutler, R. Ahlrichs; Theor. Chem. Acc. 97, 119 (1997).

================================================================================
                                        WARNINGS
                       Please study these warnings very carefully!
================================================================================


================================================================================
                                       INPUT FILE
================================================================================
NAME = /kaggle/working/Phe-OMe-2/Phe-OMe_InterFrag.inp
|  1> 
|  2> !RKS B3LYP 6-31G(d,p) TightSCF D3BJ # def2-TZVPP
|  3> 
|  4> %pal nprocs 2 end
|  5> %maxcore 3000
|  6> 
|  7> %elprop
|  8>   Polar 1      # polarizability via CP-SCF
|  9> end
| 10> 
| 11> %output
| 12>   PrintLevel Normal
| 13>   Print[ P_OrbEn ] 2
| 14> end
| 15> 
| 16> *xyz 0 1
| 17>   O     -3.750012   -0.728713    0.006406
| 18>   O      1.772312   -1.337554    1.388776
| 19>   O      3.155445   -1.517038   -0.381207
| 20>   N      3.867181    1.206767    0.145656
| 21>   C      1.572027    1.166009   -0.726464
| 22>   C      2.518217    0.697892    0.405610
| 23>   C      0.147042    0.704362   -0.547911
| 24>   C     -0.299835   -0.497560   -1.119392
| 25>   C     -0.753816    1.434307    0.233072
| 26>   C      2.544697   -0.821597    0.413556
| 27>   C     -1.598854   -0.951214   -0.918682
| 28>   C     -2.063787    0.996211    0.446459
| 29>   C     -2.488471   -0.204808   -0.132965
| 30>   C     -4.686374    0.004277    0.798259
| 31>   H      1.616541    2.260562   -0.742520
| 32>   H      1.980171    0.802135   -1.674827
| 33>   H      2.093548    1.025309    1.363399
| 34>   H      0.382419   -1.085776   -1.727510
| 35>   H     -0.431435    2.368530    0.685743
| 36>   H     -1.943954   -1.879068   -1.364203
| 37>   H     -2.734575    1.591711    1.053569
| 38>   H      4.454394    0.996052    0.951256
| 39>   H      3.804121    2.222905    0.111567
| 40>   H      1.784875   -2.308721    1.299709
| 41>   H     -5.610683   -0.575076    0.782845
| 42>   H     -4.873759    0.998279    0.376282
| 43>   H     -4.339634    0.107218    1.832817
| 44> 
| 45> *
| 46> 
| 47>                          ****END OF INPUT****
================================================================================

                       ****************************
                       * Single Point Calculation *
                       ****************************

---------------------------------
CARTESIAN COORDINATES (ANGSTROEM)
---------------------------------
  O     -3.750012   -0.728713    0.006406
  O      1.772312   -1.337554    1.388776
  O      3.155445   -1.517038   -0.381207
  N      3.867181    1.206767    0.145656
  C      1.572027    1.166009   -0.726464
  C      2.518217    0.697892    0.405610
  C      0.147042    0.704362   -0.547911
  C     -0.299835   -0.497560   -1.119392
  C     -0.753816    1.434307    0.233072
  C      2.544697   -0.821597    0.413556
  C     -1.598854   -0.951214   -0.918682
  C     -2.063787    0.996211    0.446459
  C     -2.488471   -0.204808   -0.132965
  C     -4.686374    0.004277    0.798259
  H      1.616541    2.260562   -0.742520
  H      1.980171    0.802135   -1.674827
  H      2.093548    1.025309    1.363399
  H      0.382419   -1.085776   -1.727510
  H     -0.431435    2.368530    0.685743
  H     -1.943954   -1.879068   -1.364203
  H     -2.734575    1.591711    1.053569
  H      4.454394    0.996052    0.951256
  H      3.804121    2.222905    0.111567
  H      1.784875   -2.308721    1.299709
  H     -5.610683   -0.575076    0.782845
  H     -4.873759    0.998279    0.376282
  H     -4.339634    0.107218    1.832817

----------------------------
CARTESIAN COORDINATES (A.U.)
----------------------------
  NO LB      ZA    FRAG     MASS         X           Y           Z
   0 O     8.0000    0    15.999   -7.086496   -1.377068    0.012106
   1 O     8.0000    0    15.999    3.349184   -2.527611    2.624406
   2 O     8.0000    0    15.999    5.962927   -2.866786   -0.720377
   3 N     7.0000    0    14.007    7.307913    2.280459    0.275250
   4 C     6.0000    0    12.011    2.970701    2.203438   -1.372818
   5 C     6.0000    0    12.011    4.758740    1.318825    0.766492
   6 C     6.0000    0    12.011    0.277869    1.331051   -1.035402
   7 C     6.0000    0    12.011   -0.566606   -0.940252   -2.115344
   8 C     6.0000    0    12.011   -1.424506    2.710447    0.440442
   9 C     6.0000    0    12.011    4.808780   -1.552593    0.781508
  10 C     6.0000    0    12.011   -3.021396   -1.797534   -1.736057
  11 C     6.0000    0    12.011   -3.899992    1.882566    0.843685
  12 C     6.0000    0    12.011   -4.702529   -0.387031   -0.251267
  13 C     6.0000    0    12.011   -8.855963    0.008082    1.508491
  14 H     1.0000    0     1.008    3.054820    4.271843   -1.403159
  15 H     1.0000    0     1.008    3.741981    1.515815   -3.164964
  16 H     1.0000    0     1.008    3.956232    1.937553    2.576451
  17 H     1.0000    0     1.008    0.722667   -2.051819   -3.264521
  18 H     1.0000    0     1.008   -0.815294    4.475873    1.295866
  19 H     1.0000    0     1.008   -3.673541   -3.550924   -2.577970
  20 H     1.0000    0     1.008   -5.167598    3.007898    1.990957
  21 H     1.0000    0     1.008    8.417585    1.882265    1.797613
  22 H     1.0000    0     1.008    7.188747    4.200682    0.210831
  23 H     1.0000    0     1.008    3.372925   -4.362850    2.456094
  24 H     1.0000    0     1.008  -10.602654   -1.086736    1.479363
  25 H     1.0000    0     1.008   -9.210070    1.886474    0.711070
  26 H     1.0000    0     1.008   -8.200720    0.202613    3.463522

--------------------------------
INTERNAL COORDINATES (ANGSTROEM)
--------------------------------
 O      0   0   0     0.000000000000     0.00000000     0.00000000
 O      1   0   0     5.725180917766     0.00000000     0.00000000
 O      2   1   0     2.253466490151   114.25839622     0.00000000
 N      3   2   1     2.864134499721    86.11774198   103.39959239
 C      4   3   2     2.455603060896    71.73703209   289.39419794
 C      4   3   2     1.465002976460    58.22997571   327.14209877
 C      5   4   3     1.508503025069   147.77434510    61.85098739
 C      7   5   4     1.403889625496   120.96478149   267.36207030
 C      7   5   4     1.397962547953   121.00161511    84.91737363
 C      3   2   1     1.219958823139    30.18864597    86.11227705
 C      8   7   5     1.390516745019   121.19311585   177.70504369
 C      9   7   5     1.397671684562   121.70855767   182.25997920
 C      1   2   3     1.373093740189    34.80287882   302.01853163
 C      1   2   3     1.428663469384   123.56760990   210.97637056
 H      5   4   3     1.095575447489    87.17110621   186.66989397
 H      5   4   3     1.094704614214    87.97822941   294.52103773
 H      6   4   3     1.097681839137   114.04500898   136.43433710
 H      8   7   5     1.086865256182   119.42560492   357.87568800
 H      9   7   5     1.087020311278   119.35916261     2.41166385
 H     11   8   7     1.085585563996   121.10335527   179.77950536
 H     12   9   7     1.083124804925   119.58349228   180.31562357
 H      4   3   2     1.018926532481    95.27763845    75.74803593
 H      4   3   2     1.018663368618   157.98837232   274.35431989
 H      2   1   3     0.975323588019    95.52418607   277.56003880
 H     14   1   2     1.090978742912   105.96185512   220.17641012
 H     14   1   2     1.096000776805   111.34420131   101.37588914
 H     14   1   2     1.095963380978   111.34844047   338.97447644

---------------------------
INTERNAL COORDINATES (A.U.)
---------------------------
 O      0   0   0     0.000000000000     0.00000000     0.00000000
 O      1   0   0    10.819024001731     0.00000000     0.00000000
 O      2   1   0     4.258434518354   114.25839622     0.00000000
 N      3   2   1     5.412429815188    86.11774198   103.39959239
 C      4   3   2     4.640417278711    71.73703209   289.39419794
 C      4   3   2     2.768454410889    58.22997571   327.14209877
 C      5   4   3     2.850657589573   147.77434510    61.85098739
 C      7   5   4     2.652966914440   120.96478149   267.36207030
 C      7   5   4     2.641766361109   121.00161511    84.91737363
 C      3   2   1     2.305388070393    30.18864597    86.11227705
 C      8   7   5     2.627695832717   121.19311585   177.70504369
 C      9   7   5     2.641216708958   121.70855767   182.25997920
 C      1   2   3     2.594771125159    34.80287882   302.01853163
 C      1   2   3     2.699782694674   123.56760990   210.97637056
 H      5   4   3     2.070337554803    87.17110621   186.66989397
 H      5   4   3     2.068691918404    87.97822941   294.52103773
 H      6   4   3     2.074318058148   114.04500898   136.43433710
 H      8   7   5     2.053877678659   119.42560492   357.87568800
 H      9   7   5     2.054170690325   119.35916261     2.41166385
 H     11   8   7     2.051459410891   121.10335527   179.77950536
 H     12   9   7     2.046809250165   119.58349228   180.31562357
 H      4   3   2     1.925492096975    95.27763845    75.74803593
 H      4   3   2     1.924994789346   157.98837232   274.35431989
 H      2   1   3     1.843094473310    95.52418607   277.56003880
 H     14   1   2     2.061651042033   105.96185512   220.17641012
 H     14   1   2     2.071141310727   111.34420131   101.37588914
 H     14   1   2     2.071070642855   111.34844047   338.97447644

---------------------
BASIS SET INFORMATION
---------------------
There are 4 groups of distinct atoms

 Group   1 Type O   : 10s4p1d contracted to 3s2p1d pattern {631/31/1}
 Group   2 Type N   : 10s4p1d contracted to 3s2p1d pattern {631/31/1}
 Group   3 Type C   : 10s4p1d contracted to 3s2p1d pattern {631/31/1}
 Group   4 Type H   : 4s1p contracted to 2s1p pattern {31/1}

Atom   0O    basis set group =>   1
Atom   1O    basis set group =>   1
Atom   2O    basis set group =>   1
Atom   3N    basis set group =>   2
Atom   4C    basis set group =>   3
Atom   5C    basis set group =>   3
Atom   6C    basis set group =>   3
Atom   7C    basis set group =>   3
Atom   8C    basis set group =>   3
Atom   9C    basis set group =>   3
Atom  10C    basis set group =>   3
Atom  11C    basis set group =>   3
Atom  12C    basis set group =>   3
Atom  13C    basis set group =>   3
Atom  14H    basis set group =>   4
Atom  15H    basis set group =>   4
Atom  16H    basis set group =>   4
Atom  17H    basis set group =>   4
Atom  18H    basis set group =>   4
Atom  19H    basis set group =>   4
Atom  20H    basis set group =>   4
Atom  21H    basis set group =>   4
Atom  22H    basis set group =>   4
Atom  23H    basis set group =>   4
Atom  24H    basis set group =>   4
Atom  25H    basis set group =>   4
Atom  26H    basis set group =>   4
---------------------------------
AUXILIARY/J BASIS SET INFORMATION
---------------------------------
There are 4 groups of distinct atoms

 Group   1 Type O   : 12s5p4d2f1g contracted to 6s4p3d1f1g pattern {711111/2111/211/2/1}
 Group   2 Type N   : 12s5p4d2f1g contracted to 6s4p3d1f1g pattern {711111/2111/211/2/1}
 Group   3 Type C   : 12s5p4d2f1g contracted to 6s4p3d1f1g pattern {711111/2111/211/2/1}
 Group   4 Type H   : 5s2p1d contracted to 3s1p1d pattern {311/2/1}

Atom   0O    basis set group =>   1
Atom   1O    basis set group =>   1
Atom   2O    basis set group =>   1
Atom   3N    basis set group =>   2
Atom   4C    basis set group =>   3
Atom   5C    basis set group =>   3
Atom   6C    basis set group =>   3
Atom   7C    basis set group =>   3
Atom   8C    basis set group =>   3
Atom   9C    basis set group =>   3
Atom  10C    basis set group =>   3
Atom  11C    basis set group =>   3
Atom  12C    basis set group =>   3
Atom  13C    basis set group =>   3
Atom  14H    basis set group =>   4
Atom  15H    basis set group =>   4
Atom  16H    basis set group =>   4
Atom  17H    basis set group =>   4
Atom  18H    basis set group =>   4
Atom  19H    basis set group =>   4
Atom  20H    basis set group =>   4
Atom  21H    basis set group =>   4
Atom  22H    basis set group =>   4
Atom  23H    basis set group =>   4
Atom  24H    basis set group =>   4
Atom  25H    basis set group =>   4
Atom  26H    basis set group =>   4


           ************************************************************
           *        Program running with 2 parallel MPI-processes     *
           *              working on a common directory               *
           ************************************************************
------------------------------------------------------------------------------
                             ORCA STARTUP CALCULATIONS
                           -- RI-GTO INTEGRALS CHOSEN --
------------------------------------------------------------------------------
------------------------------------------------------------------------------
                   ___                                                        
                  /   \      - P O W E R E D   B Y -                         
                 /     \                                                     
                 |  |  |   _    _      __       _____    __    __             
                 |  |  |  | |  | |    /  \     |  _  \  |  |  /  |          
                  \  \/   | |  | |   /    \    | | | |  |  | /  /          
                 / \  \   | |__| |  /  /\  \   | |_| |  |  |/  /          
                |  |  |   |  __  | /  /__\  \  |    /   |      \           
                |  |  |   | |  | | |   __   |  |    \   |  |\   \          
                \     /   | |  | | |  |  |  |  | |\  \  |  | \   \       
                 \___/    |_|  |_| |__|  |__|  |_| \__\ |__|  \__/        
                                                                              
                      - O R C A' S   B I G   F R I E N D -                    
                                      &                                       
                       - I N T E G R A L  F E E D E R -                       
                                                                              
 v1 FN, 2020, v2 2021, v3 2022-2024                                           
------------------------------------------------------------------------------


----------------------
SHARK INTEGRAL PACKAGE
----------------------

Number of atoms                             ...     27
Number of basis functions                   ...    261
Number of shells                            ...    123
Maximum angular momentum                    ...      2
Integral batch strategy                     ... SHARK/LIBINT Hybrid
RI-J (if used) integral strategy            ... SPLIT-RIJ (Revised 2003 algorithm where possible)
Printlevel                                  ...      1
Contraction scheme used                     ... SEGMENTED contraction
Prescreening option                         ... SCHWARTZ
   Thresh                                   ... 2.500e-11
   Tcut                                     ... 2.500e-12
   Tpresel                                  ... 2.500e-12 
Coulomb Range Separation                    ... NOT USED
Exchange Range Separation                   ... NOT USED
Multipole approximations                    ... NOT USED
Finite Nucleus Model                        ... NOT USED
CABS basis                                  ... NOT available
Auxiliary Coulomb fitting basis             ... AVAILABLE
   # of basis functions in Aux-J            ...    829
   # of shells in Aux-J                     ...    275
   Maximum angular momentum in Aux-J        ...      4
Auxiliary J/K fitting basis                 ... NOT available
Auxiliary Correlation fitting basis         ... NOT available
Auxiliary 'external' fitting basis          ... NOT available

Checking pre-screening integrals            ... done (  0.0 sec) Dimension = 123
   => SHARK Basis and OBASIS are compatible. Storing Pre-screening
Shell pair information
Shell pair cut-off parameter TPreSel        ...   2.5e-12
Total number of shell pairs                 ...      7626
Shell pairs after pre-screening             ...      6001
Total number of primitive shell pairs       ...     38283
Primitive shell pairs kept                  ...     18461
          la=0 lb=0:   1841 shell pairs
          la=1 lb=0:   2202 shell pairs
          la=1 lb=1:    691 shell pairs
          la=2 lb=0:    733 shell pairs
          la=2 lb=1:    451 shell pairs
          la=2 lb=2:     83 shell pairs

Checking whether 4 symmetric matrices of dimension 261 fit in memory
:Max Core in MB      =   3000.00
 MB in use           =     11.50
 MB left             =   2988.50
 MB needed           =      1.04
 Data fit in memory  = YES
Calculating RI/J V-Matrix + Cholesky decomp.... done (  0.0 sec)
Calculating Nuclear repulsion               ... done (  0.0 sec) ENN=    882.721879923317 Eh

Diagonalization of the overlap matrix:
Smallest eigenvalue                        ... 4.502e-04
Time for diagonalization                   ...    0.008 sec
Threshold for overlap eigenvalues          ... 1.000e-07
Number of eigenvalues below threshold      ... 0
Time for construction of square roots      ...    0.003 sec
Total time needed                          ...    0.012 sec

-------------------
DFT GRID GENERATION
-------------------

General Integration Accuracy     IntAcc      ... 4.388
Radial Grid Type                 RadialGrid  ... OptM3 with GC (2021)
Angular Grid (max. ang.)         AngularGrid ... 4 (Lebedev-302)
Angular grid pruning method      GridPruning ... 4 (adaptive)
Weight generation scheme         WeightScheme... mBecke (2022)
Basis function cutoff            BFCut       ... 1.0000e-11
Integration weight cutoff        WCut        ... 1.0000e-14
Partially contracted basis set               ... off
Rotationally invariant grid construction     ... off
Angular grids for H and He will be reduced by one unit

Total number of grid points                  ...   125663
Total number of batches                      ...     1979
Average number of points per batch           ...       63
Average number of grid points per atom       ...     4654

--------------------
COSX GRID GENERATION
--------------------

GRIDX 1
-------
General Integration Accuracy     IntAcc      ... 3.816
Radial Grid Type                 RadialGrid  ... OptM3 with GC (2021)
Angular Grid (max. ang.)         AngularGrid ... 1 (Lebedev-50)
Angular grid pruning method      GridPruning ... 4 (adaptive)
Weight generation scheme         WeightScheme... mBecke (2022)
Basis function cutoff            BFCut       ... 1.0000e-11
Integration weight cutoff        WCut        ... 1.0000e-14
Partially contracted basis set               ... on
Rotationally invariant grid construction     ... off
Angular grids for H and He will be reduced by one unit

Total number of grid points                  ...    15970
Total number of batches                      ...      141
Average number of points per batch           ...      113
Average number of grid points per atom       ...      591
UseSFitting                                  ... on

GRIDX 2
-------
General Integration Accuracy     IntAcc      ... 4.020
Radial Grid Type                 RadialGrid  ... OptM3 with GC (2021)
Angular Grid (max. ang.)         AngularGrid ... 2 (Lebedev-110)
Angular grid pruning method      GridPruning ... 4 (adaptive)
Weight generation scheme         WeightScheme... mBecke (2022)
Basis function cutoff            BFCut       ... 1.0000e-11
Integration weight cutoff        WCut        ... 1.0000e-14
Partially contracted basis set               ... on
Rotationally invariant grid construction     ... off
Angular grids for H and He will be reduced by one unit

Total number of grid points                  ...    34574
Total number of batches                      ...      286
Average number of points per batch           ...      120
Average number of grid points per atom       ...     1281
UseSFitting                                  ... on

GRIDX 3
-------
General Integration Accuracy     IntAcc      ... 4.338
Radial Grid Type                 RadialGrid  ... OptM3 with GC (2021)
Angular Grid (max. ang.)         AngularGrid ... 3 (Lebedev-194)
Angular grid pruning method      GridPruning ... 4 (adaptive)
Weight generation scheme         WeightScheme... mBecke (2022)
Basis function cutoff            BFCut       ... 1.0000e-11
Integration weight cutoff        WCut        ... 1.0000e-14
Partially contracted basis set               ... on
Rotationally invariant grid construction     ... off
Angular grids for H and He will be reduced by one unit

Total number of grid points                  ...    75796
Total number of batches                      ...      603
Average number of points per batch           ...      125
Average number of grid points per atom       ...     2807
UseSFitting                                  ... on
Grids setup in   2.7 sec
Initializing property integral containers    ... done (  0.0 sec)

SHARK setup successfully completed in   2.9 seconds

Maximum memory used throughout the entire STARTUP-calculation: 43.0 MB


           ************************************************************
           *        Program running with 2 parallel MPI-processes     *
           *              working on a common directory               *
           ************************************************************
-------------------------------------------------------------------------------
                                 ORCA GUESS
                   Start orbitals & Density for SCF / CASSCF
-------------------------------------------------------------------------------

------------
SCF SETTINGS
------------
Hamiltonian:
 Density Functional     Method          .... DFT(GTOs)
 Exchange Functional    Exchange        .... B88
   X-Alpha parameter    XAlpha          ....  0.666667
   Becke's b parameter  XBeta           ....  0.004200
 Correlation Functional Correlation     .... LYP
 LDA part of GGA corr.  LDAOpt          .... VWN-5
 Gradients option       PostSCFGGA      .... off
 Hybrid DFT is turned on
   Fraction HF Exchange ScalHFX         ....  0.200000
   Scaling of DF-GGA-X  ScalDFX         ....  0.720000
   Scaling of DF-GGA-C  ScalDFC         ....  0.810000
   Scaling of DF-LDA-C  ScalLDAC        ....  1.000000
   Perturbative correction              ....  0.000000
   NL short-range parameter             ....  4.800000
 RI-approximation to the Coulomb term is turned on
   Number of AuxJ basis functions       .... 829
   RIJ-COSX (HFX calculated with COS-X)).... on


General Settings:
 Integral files         IntName         .... /kaggle/working/Phe-OMe-2/Phe-OMe_InterFrag
 Hartree-Fock type      HFTyp           .... RHF
 Total Charge           Charge          ....    0
 Multiplicity           Mult            ....    1
 Number of Electrons    NEL             ....  104
 Basis Dimension        Dim             ....  261
 Nuclear Repulsion      ENuc            ....    882.7218799233 Eh

Convergence Acceleration:
 AO-DIIS                CNVDIIS         .... on
   Start iteration      DIISMaxIt       ....    12
   Startup error        DIISStart       ....  0.200000
   # of expansion vecs  DIISMaxEq       ....     5
   Bias factor          DIISBfac        ....   1.050
   Max. coefficient     DIISMaxC        ....  10.000
 MO-DIIS                CNVKDIIS        .... off
 Trust-Rad. Augm. Hess. CNVTRAH         .... auto
   Auto Start mean grad. ratio tolernc. ....  1.125000
   Auto Start start iteration           ....    50
   Auto Start num. interpolation iter.  ....    10
   Max. Number of Micro iterations      ....    24
   Max. Number of Macro iterations      .... Maxiter - #DIIS iter
   Number of Davidson start vectors     ....     2
   Converg. threshold    (grad. norm)   ....   1.000e-05
   Grad. Scal. Fac. for Micro threshold ....   0.100
   Minimum threshold for Micro iter.    ....   1.000e-02
   NR start threshold (gradient norm)   ....   1.000e-04
   Initial trust radius                 ....   0.400
   Minimum AH scaling param. (alpha)    ....   1.000
   Maximum AH scaling param. (alpha)    .... 1000.000
   Quad. conv. algorithm                .... NR
   White noise on init. David. guess    .... on
   Maximum white noise                  ....   0.010
   Pseudo random numbers                .... off
   Inactive MOs                         .... canonical
   Orbital update algorithm             .... Taylor
   Preconditioner                       .... Diag
   Full preconditioner red. dimension   ....   250
 SOSCF                 CNVSOSCF           .... on
   Start iteration     SOSCFMaxIt         ....   150
   Startup grad/error  SOSCFStart         ....  0.003300
   Hessian update      SOSCFHessUp        .... L-BFGS
   Autom. constraints  SOSCFAutoConstrain .... off
 Level Shifting         CNVShift        .... on
   Level shift para.    LevelShift      ....    0.2500
   Turn off err/grad.   ShiftErr        ....    0.0010
 Zerner damping         CNVZerner       .... off
 Static damping         CNVDamp         .... on
   Fraction old density DampFac         ....    0.7000
   Max. Damping (<1)    DampMax         ....    0.9800
   Min. Damping (>=0)   DampMin         ....    0.0000
   Turn off err/grad.   DampErr         ....    0.1000

SCF Procedure:
 Maximum # iterations   MaxIter         ....   125
 SCF integral mode      SCFMode         .... Direct
   Integral package                     .... SHARK and LIBINT hybrid scheme
 Reset frequency        DirectResetFreq ....    20
 Integral Threshold     Thresh          ....  2.500e-11 Eh
 Primitive CutOff       TCut            ....  2.500e-12 Eh

Convergence Tolerance:
 Convergence Check Mode ConvCheckMode   .... Total+1el-Energy
 Convergence forced     ConvForced      .... 0
 Energy Change          TolE            ....  1.000e-08 Eh
 1-El. energy change                    ....  1.000e-05 Eh
 Orbital Gradient       TolG            ....  1.000e-05
 Orbital Rotation angle TolX            ....  1.000e-05
 DIIS Error             TolErr          ....  5.000e-07

------------------------------
INITIAL GUESS: MODEL POTENTIAL
------------------------------
Loading Hartree-Fock densities                     ... done
Calculating cut-offs                               ... done
Initializing the effective Hamiltonian             ... done
Setting up the integral package (SHARK)            ... done
Starting the Coulomb interaction                   ... done (   0.2 sec)
Making the grid                                    ... done (   0.3 sec)
Mapping shells                                     ... done
Starting the XC term evaluation                    ... done (   0.2 sec)
  promolecular density results
     # of electrons  =    103.994220548
     EX              =    -86.453949818
     EC              =     -3.543765907
     EX+EC           =    -89.997715725
Transforming the Hamiltonian                       ... done (   0.0 sec)
Diagonalizing the Hamiltonian                      ... done (   0.0 sec)
Back transforming the eigenvectors                 ... done (   0.0 sec)
Now organizing SCF variables                       ... done
                      ------------------
                      INITIAL GUESS DONE (   0.8 sec)
                      ------------------
             **** ENERGY FILE WAS UPDATED (/kaggle/working/Phe-OMe-2/Phe-OMe_InterFrag.en.tmp) ****
Finished Guess after   1.1 sec
Maximum memory used throughout the entire GUESS-calculation: 16.6 MB


           ************************************************************
           *        Program running with 2 parallel MPI-processes     *
           *              working on a common directory               *
           ************************************************************

-------------------------------------------------------------------------------------------
                                      ORCA LEAN-SCF
                              memory conserving SCF solver
-------------------------------------------------------------------------------------------

----------------------------------------D-I-I-S--------------------------------------------
Iteration    Energy (Eh)           Delta-E    RMSDP     MaxDP     DIISErr   Damp  Time(sec)
-------------------------------------------------------------------------------------------
               ***  Starting incremental Fock matrix formation  ***
    1    -668.5185261428919148     0.00e+00  3.76e-03  9.38e-02  2.63e-01  0.700   7.1
    2    -668.7124070559013944    -1.94e-01  2.56e-03  5.29e-02  1.14e-01  0.700   3.5
                               ***Turning on AO-DIIS***
    3    -668.7872078450211575    -7.48e-02  1.03e-03  1.68e-02  4.13e-02  0.700   3.5
    4    -668.8326053403577589    -4.54e-02  1.61e-03  2.42e-02  1.88e-02  0.000   3.4
    5    -668.9322686330435772    -9.97e-02  3.73e-04  8.26e-03  6.64e-03  0.000   3.4
                              *** Initializing SOSCF ***
---------------------------------------S-O-S-C-F--------------------------------------
Iteration    Energy (Eh)           Delta-E    RMSDP     MaxDP     MaxGrad    Time(sec)
--------------------------------------------------------------------------------------
    6    -668.9328802796653690    -6.12e-04  1.17e-04  2.32e-03  2.36e-03     3.1
               *** Restarting incremental Fock matrix formation ***
    7    -668.9328753864685950     4.89e-06  8.34e-05  1.45e-03  3.53e-04     7.1
    8    -668.9328710262575441     4.36e-06  3.63e-05  1.08e-03  4.87e-04     4.9
    9    -668.9328803849771248    -9.36e-06  2.24e-05  4.41e-04  7.82e-05     4.4
   10    -668.9328800758578382     3.09e-07  1.17e-05  2.08e-04  7.56e-05     4.2
   11    -668.9328808636830672    -7.88e-07  4.87e-06  9.36e-05  2.07e-05     4.0
   12    -668.9328808352352098     2.84e-08  3.05e-06  5.85e-05  3.30e-05     3.5
   13    -668.9328808853729242    -5.01e-08  7.80e-07  1.88e-05  2.95e-06     3.3
   14    -668.9328808724453665     1.29e-08  4.73e-07  1.21e-05  4.50e-06     2.6
   15    -668.9328808795919485    -7.15e-09  9.81e-08  1.74e-06  3.28e-07     2.4
                 **** Energy Check signals convergence ****

               *****************************************************
               *                     SUCCESS                       *
               *           SCF CONVERGED AFTER  15 CYCLES          *
               *****************************************************

Recomputing exchange energy using gridx3       ... done (   11.884 sec)
Old exchange energy                            :    -17.569537599 Eh
New exchange energy                            :    -17.569523828 Eh
Exchange energy change after final integration :      0.000013772 Eh
Total energy after final integration           :   -668.932867109 Eh
             **** ENERGY FILE WAS UPDATED (/kaggle/working/Phe-OMe-2/Phe-OMe_InterFrag.en.tmp) ****

----------------
TOTAL SCF ENERGY
----------------

Total Energy       :       -668.93286710945677 Eh          -18202.58872 eV

Components:
Nuclear Repulsion  :        882.72187992331692 Eh           24020.08351 eV
Electronic Energy  :      -1551.65476080430790 Eh          -42222.67260 eV
One Electron Energy:      -2662.84850742327581 Eh          -72459.79167 eV
Two Electron Energy:       1111.19374661896791 Eh           30237.11907 eV

Virial components:
Potential Energy   :      -1333.74175416496610 Eh          -36292.95823 eV
Kinetic Energy     :        664.80888705550933 Eh           18090.36951 eV
Virial Ratio       :          2.00620325650611

DFT components:
N(Alpha)           :       52.000042332370 electrons
N(Beta)            :       52.000042332370 electrons
N(Total)           :      104.000084664740 electrons
E(X)               :      -69.801818253527 Eh       
E(C)               :       -4.177494085552 Eh       
E(XC)              :      -73.979312339079 Eh       

---------------
SCF CONVERGENCE
---------------

  Last Energy change         ...    7.1466e-09  Tolerance :   1.0000e-08
  Last MAX-Density change    ...    1.7435e-06  Tolerance :   1.0000e-07
  Last RMS-Density change    ...    9.8110e-08  Tolerance :   5.0000e-09
  Last DIIS Error            ...    2.3650e-03  Tolerance :   5.0000e-07
  Last Orbital Gradient      ...    3.2844e-07  Tolerance :   1.0000e-05
  Last Orbital Rotation      ...    1.4343e-06  Tolerance :   1.0000e-05


----------------
ORBITAL ENERGIES
----------------

  NO   OCC          E(Eh)            E(eV) 
   0   2.0000     -19.186173      -522.0823 
   1   2.0000     -19.168082      -521.5900 
   2   2.0000     -19.123599      -520.3796 
   3   2.0000     -14.314231      -389.5100 
   4   2.0000     -10.304342      -280.3954 
   5   2.0000     -10.237575      -278.5786 
   6   2.0000     -10.234007      -278.4815 
   7   2.0000     -10.220076      -278.1024 
   8   2.0000     -10.184787      -277.1421 
   9   2.0000     -10.181371      -277.0492 
  10   2.0000     -10.180281      -277.0195 
  11   2.0000     -10.178841      -276.9803 
  12   2.0000     -10.178458      -276.9699 
  13   2.0000     -10.174624      -276.8656 
  14   2.0000      -1.095837       -29.8192 
  15   2.0000      -1.053858       -28.6769 
  16   2.0000      -0.999946       -27.2099 
  17   2.0000      -0.892360       -24.2823 
  18   2.0000      -0.847434       -23.0598 
  19   2.0000      -0.777426       -21.1548 
  20   2.0000      -0.743313       -20.2266 
  21   2.0000      -0.727271       -19.7900 
  22   2.0000      -0.693502       -18.8712 
  23   2.0000      -0.655859       -17.8468 
  24   2.0000      -0.606869       -16.5138 
  25   2.0000      -0.585680       -15.9372 
  26   2.0000      -0.563962       -15.3462 
  27   2.0000      -0.526249       -14.3200 
  28   2.0000      -0.505605       -13.7582 
  29   2.0000      -0.488464       -13.2918 
  30   2.0000      -0.475779       -12.9466 
  31   2.0000      -0.463119       -12.6021 
  32   2.0000      -0.461478       -12.5574 
  33   2.0000      -0.459345       -12.4994 
  34   2.0000      -0.445824       -12.1315 
  35   2.0000      -0.430285       -11.7087 
  36   2.0000      -0.422509       -11.4971 
  37   2.0000      -0.416643       -11.3374 
  38   2.0000      -0.411358       -11.1936 
  39   2.0000      -0.390713       -10.6318 
  40   2.0000      -0.377211       -10.2644 
  41   2.0000      -0.366892        -9.9836 
  42   2.0000      -0.360289        -9.8040 
  43   2.0000      -0.348827        -9.4921 
  44   2.0000      -0.343068        -9.3353 
  45   2.0000      -0.320276        -8.7151 
  46   2.0000      -0.310745        -8.4558 
  47   2.0000      -0.302419        -8.2293 
  48   2.0000      -0.261660        -7.1201 
  49   2.0000      -0.247024        -6.7219 
  50   2.0000      -0.241686        -6.5766 
  51   2.0000      -0.210617        -5.7312 
  52   0.0000       0.000116         0.0032 
  53   0.0000       0.011437         0.3112 
  54   0.0000       0.018142         0.4937 
  55   0.0000       0.081944         2.2298 
  56   0.0000       0.084707         2.3050 
  57   0.0000       0.095361         2.5949 
  58   0.0000       0.108585         2.9548 
  59   0.0000       0.129096         3.5129 
  60   0.0000       0.140029         3.8104 
  61   0.0000       0.141493         3.8502 
  62   0.0000       0.156668         4.2631 
  63   0.0000       0.161504         4.3947 
  64   0.0000       0.164708         4.4819 
  65   0.0000       0.169260         4.6058 
  66   0.0000       0.171885         4.6772 
  67   0.0000       0.191720         5.2170 
  68   0.0000       0.196642         5.3509 
  69   0.0000       0.209631         5.7043 
  70   0.0000       0.223300         6.0763 
  71   0.0000       0.248539         6.7631 
  72   0.0000       0.250070         6.8047 
  73   0.0000       0.262697         7.1483 
  74   0.0000       0.267972         7.2919 
  75   0.0000       0.328339         8.9346 
  76   0.0000       0.328549         8.9403 
  77   0.0000       0.345143         9.3918 
  78   0.0000       0.350941         9.5496 
  79   0.0000       0.373525        10.1641 
  80   0.0000       0.376966        10.2578 
  81   0.0000       0.480507        13.0753 
  82   0.0000       0.505385        13.7522 
  83   0.0000       0.506803        13.7908 
  84   0.0000       0.516182        14.0460 
  85   0.0000       0.531224        14.4553 
  86   0.0000       0.540860        14.7175 
  87   0.0000       0.543858        14.7991 
  88   0.0000       0.559045        15.2124 
  89   0.0000       0.563376        15.3303 
  90   0.0000       0.582587        15.8530 
  91   0.0000       0.593466        16.1490 
  92   0.0000       0.598917        16.2973 
  93   0.0000       0.606632        16.5073 
  94   0.0000       0.612958        16.6794 
  95   0.0000       0.618953        16.8426 
  96   0.0000       0.646477        17.5915 
  97   0.0000       0.648344        17.6423 
  98   0.0000       0.651958        17.7407 
  99   0.0000       0.665292        18.1035 
 100   0.0000       0.673955        18.3392 
 101   0.0000       0.695131        18.9155 
 102   0.0000       0.708622        19.2826 
 103   0.0000       0.724040        19.7021 
 104   0.0000       0.736663        20.0456 
 105   0.0000       0.740124        20.1398 
 106   0.0000       0.754913        20.5422 
 107   0.0000       0.792107        21.5543 
 108   0.0000       0.804439        21.8899 
 109   0.0000       0.814588        22.1661 
 110   0.0000       0.822669        22.3860 
 111   0.0000       0.827488        22.5171 
 112   0.0000       0.835434        22.7333 
 113   0.0000       0.845906        23.0183 
 114   0.0000       0.849327        23.1114 
 115   0.0000       0.857432        23.3319 
 116   0.0000       0.867205        23.5978 
 117   0.0000       0.872381        23.7387 
 118   0.0000       0.887558        24.1517 
 119   0.0000       0.908886        24.7321 
 120   0.0000       0.910546        24.7772 
 121   0.0000       0.921103        25.0645 
 122   0.0000       0.929112        25.2824 
 123   0.0000       0.949369        25.8336 
 124   0.0000       0.958681        26.0870 
 125   0.0000       0.964506        26.2455 
 126   0.0000       0.988482        26.8980 
 127   0.0000       1.007380        27.4122 
 128   0.0000       1.017634        27.6912 
 129   0.0000       1.034140        28.1404 
 130   0.0000       1.039246        28.2793 
 131   0.0000       1.041792        28.3486 
 132   0.0000       1.052545        28.6412 
 133   0.0000       1.077737        29.3267 
 134   0.0000       1.095856        29.8198 
 135   0.0000       1.117136        30.3988 
 136   0.0000       1.130762        30.7696 
 137   0.0000       1.168235        31.7893 
 138   0.0000       1.176808        32.0226 
 139   0.0000       1.196466        32.5575 
 140   0.0000       1.226322        33.3699 
 141   0.0000       1.263023        34.3686 
 142   0.0000       1.282579        34.9007 
 143   0.0000       1.296410        35.2771 
 144   0.0000       1.315835        35.8057 
 145   0.0000       1.349549        36.7231 
 146   0.0000       1.371858        37.3302 
 147   0.0000       1.393775        37.9265 
 148   0.0000       1.401996        38.1502 
 149   0.0000       1.407372        38.2965 
 150   0.0000       1.417239        38.5650 
 151   0.0000       1.420239        38.6467 
 152   0.0000       1.456174        39.6245 
 153   0.0000       1.463022        39.8109 
 154   0.0000       1.479761        40.2663 
 155   0.0000       1.501947        40.8701 
 156   0.0000       1.522244        41.4224 
 157   0.0000       1.581068        43.0230 
 158   0.0000       1.602377        43.6029 
 159   0.0000       1.651523        44.9402 
 160   0.0000       1.697125        46.1811 
 161   0.0000       1.714415        46.6516 
 162   0.0000       1.756521        47.7974 
 163   0.0000       1.759457        47.8773 
 164   0.0000       1.766606        48.0718 
 165   0.0000       1.783773        48.5389 
 166   0.0000       1.796105        48.8745 
 167   0.0000       1.819352        49.5071 
 168   0.0000       1.829469        49.7824 
 169   0.0000       1.854637        50.4672 
 170   0.0000       1.869470        50.8709 
 171   0.0000       1.882253        51.2187 
 172   0.0000       1.887257        51.3549 
 173   0.0000       1.899735        51.6944 
 174   0.0000       1.911914        52.0258 
 175   0.0000       1.917134        52.1679 
 176   0.0000       1.922385        52.3107 
 177   0.0000       1.935881        52.6780 
 178   0.0000       1.940747        52.8104 
 179   0.0000       1.950914        53.0871 
 180   0.0000       1.981677        53.9242 
 181   0.0000       1.986970        54.0682 
 182   0.0000       1.994598        54.2758 
 183   0.0000       2.011303        54.7303 
 184   0.0000       2.021859        55.0176 
 185   0.0000       2.025414        55.1143 
 186   0.0000       2.032334        55.3026 
 187   0.0000       2.039434        55.4958 
 188   0.0000       2.056964        55.9728 
 189   0.0000       2.088860        56.8408 
 190   0.0000       2.118871        57.6574 
 191   0.0000       2.128812        57.9279 
 192   0.0000       2.148660        58.4680 
 193   0.0000       2.181364        59.3579 
 194   0.0000       2.188319        59.5472 
 195   0.0000       2.211298        60.1725 
 196   0.0000       2.247440        61.1560 
 197   0.0000       2.272232        61.8306 
 198   0.0000       2.281681        62.0877 
 199   0.0000       2.289294        62.2948 
 200   0.0000       2.294210        62.4286 
 201   0.0000       2.306995        62.7765 
 202   0.0000       2.320541        63.1451 
 203   0.0000       2.342314        63.7376 
 204   0.0000       2.359540        64.2064 
 205   0.0000       2.377673        64.6998 
 206   0.0000       2.413597        65.6773 
 207   0.0000       2.420411        65.8627 
 208   0.0000       2.425364        65.9975 
 209   0.0000       2.437699        66.3332 
 210   0.0000       2.446685        66.5777 
 211   0.0000       2.470234        67.2185 
 212   0.0000       2.489453        67.7415 
 213   0.0000       2.508051        68.2475 
 214   0.0000       2.522247        68.6338 
 215   0.0000       2.544870        69.2494 
 216   0.0000       2.563964        69.7690 
 217   0.0000       2.573733        70.0348 
 218   0.0000       2.577481        70.1368 
 219   0.0000       2.589341        70.4595 
 220   0.0000       2.609224        71.0006 
 221   0.0000       2.619884        71.2907 
 222   0.0000       2.639888        71.8350 
 223   0.0000       2.656477        72.2864 
 224   0.0000       2.672628        72.7259 
 225   0.0000       2.679533        72.9138 
 226   0.0000       2.703307        73.5607 
 227   0.0000       2.729648        74.2775 
 228   0.0000       2.741419        74.5978 
 229   0.0000       2.755199        74.9728 
 230   0.0000       2.784789        75.7779 
 231   0.0000       2.793004        76.0015 
 232   0.0000       2.807857        76.4057 
 233   0.0000       2.828675        76.9722 
 234   0.0000       2.838920        77.2509 
 235   0.0000       2.840550        77.2953 
 236   0.0000       2.864965        77.9597 
 237   0.0000       2.889998        78.6408 
 238   0.0000       2.904630        79.0390 
 239   0.0000       2.943618        80.0999 
 240   0.0000       2.969630        80.8077 
 241   0.0000       3.019473        82.1640 
 242   0.0000       3.067949        83.4831 
 243   0.0000       3.091369        84.1204 
 244   0.0000       3.123062        84.9828 
 245   0.0000       3.167857        86.2018 
 246   0.0000       3.181520        86.5736 
 247   0.0000       3.225955        87.7827 
 248   0.0000       3.259202        88.6874 
 249   0.0000       3.296595        89.7049 
 250   0.0000       3.326574        90.5207 
 251   0.0000       3.352556        91.2277 
 252   0.0000       3.372495        91.7703 
 253   0.0000       3.401981        92.5726 
 254   0.0000       3.404657        92.6454 
 255   0.0000       3.450260        93.8864 
 256   0.0000       3.459316        94.1328 
 257   0.0000       3.501411        95.2782 
 258   0.0000       3.533843        96.1608 
 259   0.0000       3.546421        96.5030 
 260   0.0000       3.854400       104.8836 

                    ********************************
                    * MULLIKEN POPULATION ANALYSIS *
                    ********************************

-----------------------
MULLIKEN ATOMIC CHARGES
-----------------------
   0 O :   -0.499134
   1 O :   -0.466851
   2 O :   -0.429546
   3 N :   -0.554746
   4 C :   -0.247415
   5 C :    0.000578
   6 C :    0.109736
   7 C :   -0.126179
   8 C :   -0.124405
   9 C :    0.528076
  10 C :   -0.118462
  11 C :   -0.141133
  12 C :    0.334622
  13 C :   -0.071487
  14 H :    0.094982
  15 H :    0.133661
  16 H :    0.096243
  17 H :    0.097222
  18 H :    0.073525
  19 H :    0.093100
  20 H :    0.083782
  21 H :    0.237183
  22 H :    0.233328
  23 H :    0.322379
  24 H :    0.122107
  25 H :    0.109548
  26 H :    0.109285
Sum of atomic charges:    0.0000000

--------------------------------
MULLIKEN REDUCED ORBITAL CHARGES
--------------------------------
  0 O s       :     3.874566  s :     3.874566
      pz      :     1.671050  p :     4.595394
      px      :     1.275606
      py      :     1.648738
      dz2     :     0.004421  d :     0.029174
      dxz     :     0.005438
      dyz     :     0.004710
      dx2y2   :     0.005729
      dxy     :     0.008876

  1 O s       :     3.823293  s :     3.823293
      pz      :     1.619463  p :     4.620204
      px      :     1.670372
      py      :     1.330369
      dz2     :     0.006545  d :     0.023355
      dxz     :     0.005620
      dyz     :     0.002979
      dx2y2   :     0.006650
      dxy     :     0.001561

  2 O s       :     3.859451  s :     3.859451
      pz      :     1.457804  p :     4.542252
      px      :     1.445430
      py      :     1.639018
      dz2     :     0.007099  d :     0.027842
      dxz     :     0.005236
      dyz     :     0.006012
      dx2y2   :     0.004482
      dxy     :     0.005014

  3 N s       :     3.630322  s :     3.630322
      pz      :     1.541516  p :     3.893571
      px      :     1.150092
      py      :     1.201963
      dz2     :     0.007431  d :     0.030853
      dxz     :     0.008666
      dyz     :     0.001418
      dx2y2   :     0.010731
      dxy     :     0.002608

  4 C s       :     3.241063  s :     3.241063
      pz      :     0.995735  p :     2.968528
      px      :     0.948301
      py      :     1.024492
      dz2     :     0.008707  d :     0.037824
      dxz     :     0.009361
      dyz     :     0.003726
      dx2y2   :     0.010966
      dxy     :     0.005065

  5 C s       :     3.175318  s :     3.175318
      pz      :     0.992317  p :     2.766809
      px      :     0.842394
      py      :     0.932098
      dz2     :     0.011691  d :     0.057296
      dxz     :     0.015396
      dyz     :     0.004894
      dx2y2   :     0.016054
      dxy     :     0.009262

  6 C s       :     3.127387  s :     3.127387
      pz      :     0.941097  p :     2.722551
      px      :     0.874570
      py      :     0.906884
      dz2     :     0.005942  d :     0.040326
      dxz     :     0.007422
      dyz     :     0.005731
      dx2y2   :     0.010721
      dxy     :     0.010510

  7 C s       :     3.187656  s :     3.187656
      pz      :     0.990463  p :     2.903071
      px      :     0.957148
      py      :     0.955460
      dz2     :     0.003331  d :     0.035451
      dxz     :     0.007393
      dyz     :     0.005803
      dx2y2   :     0.008998
      dxy     :     0.009926

  8 C s       :     3.186251  s :     3.186251
      pz      :     0.972839  p :     2.902676
      px      :     0.951361
      py      :     0.978475
      dz2     :     0.004577  d :     0.035478
      dxz     :     0.007430
      dyz     :     0.004924
      dx2y2   :     0.009445
      dxy     :     0.009102

  9 C s       :     2.990146  s :     2.990146
      pz      :     0.723540  p :     2.359534
      px      :     0.736509
      py      :     0.899484
      dz2     :     0.030154  d :     0.122245
      dxz     :     0.023081
      dyz     :     0.025507
      dx2y2   :     0.025668
      dxy     :     0.017835

 10 C s       :     3.176540  s :     3.176540
      pz      :     0.995826  p :     2.909022
      px      :     0.949070
      py      :     0.964126
      dz2     :     0.004187  d :     0.032899
      dxz     :     0.007145
      dyz     :     0.004391
      dx2y2   :     0.007634
      dxy     :     0.009542

 11 C s       :     3.152439  s :     3.152439
      pz      :     1.024269  p :     2.955645
      px      :     0.980031
      py      :     0.951345
      dz2     :     0.003208  d :     0.033049
      dxz     :     0.006912
      dyz     :     0.005347
      dx2y2   :     0.008454
      dxy     :     0.009127

 12 C s       :     3.074034  s :     3.074034
      pz      :     0.937592  p :     2.521931
      px      :     0.697336
      py      :     0.887003
      dz2     :     0.008946  d :     0.069413
      dxz     :     0.014407
      dyz     :     0.007996
      dx2y2   :     0.018622
      dxy     :     0.019442

 13 C s       :     3.191435  s :     3.191435
      pz      :     0.944556  p :     2.824893
      px      :     0.901572
      py      :     0.978764
      dz2     :     0.014463  d :     0.055159
      dxz     :     0.010041
      dyz     :     0.008270
      dx2y2   :     0.009481
      dxy     :     0.012905

 14 H s       :     0.893442  s :     0.893442
      pz      :     0.002388  p :     0.011576
      px      :     0.002267
      py      :     0.006921

 15 H s       :     0.855009  s :     0.855009
      pz      :     0.005753  p :     0.011330
      px      :     0.002867
      py      :     0.002710

 16 H s       :     0.892919  s :     0.892919
      pz      :     0.005971  p :     0.010838
      px      :     0.002595
      py      :     0.002272

 17 H s       :     0.890452  s :     0.890452
      pz      :     0.004255  p :     0.012325
      px      :     0.004294
      py      :     0.003776

 18 H s       :     0.914201  s :     0.914201
      pz      :     0.003471  p :     0.012274
      px      :     0.002497
      py      :     0.006306

 19 H s       :     0.894550  s :     0.894550
      pz      :     0.003459  p :     0.012350
      px      :     0.002533
      py      :     0.006359

 20 H s       :     0.903472  s :     0.903472
      pz      :     0.004549  p :     0.012746
      px      :     0.004218
      py      :     0.003978

 21 H s       :     0.739070  s :     0.739070
      pz      :     0.010219  p :     0.023747
      px      :     0.008008
      py      :     0.005519

 22 H s       :     0.742824  s :     0.742824
      pz      :     0.007083  p :     0.023848
      px      :     0.004651
      py      :     0.012114

 23 H s       :     0.640143  s :     0.640143
      pz      :     0.007593  p :     0.037478
      px      :     0.008039
      py      :     0.021845

 24 H s       :     0.867124  s :     0.867124
      pz      :     0.002016  p :     0.010769
      px      :     0.005447
      py      :     0.003306

 25 H s       :     0.879417  s :     0.879417
      pz      :     0.002646  p :     0.011034
      px      :     0.002156
      py      :     0.006233

 26 H s       :     0.879680  s :     0.879680
      pz      :     0.006577  p :     0.011036
      px      :     0.002235
      py      :     0.002224


------------------------
MULLIKEN OVERLAP CHARGES
------------------------
B(  0-O , 10-C ) :  -0.1039 B(  0-O , 11-C ) :  -0.1211 B(  0-O , 12-C ) :   0.5895 
B(  0-O , 13-C ) :   0.5308 B(  0-O , 24-H ) :  -0.0636 B(  0-O , 25-H ) :  -0.0724 
B(  0-O , 26-H ) :  -0.0725 B(  1-O ,  2-O ) :  -0.1663 B(  1-O ,  5-C ) :  -0.1603 
B(  1-O ,  9-C ) :   0.5631 B(  1-O , 23-H ) :   0.5457 B(  2-O ,  5-C ) :  -0.1670 
B(  2-O ,  9-C ) :   1.2443 B(  3-N ,  4-C ) :  -0.0845 B(  3-N ,  5-C ) :   0.5963 
B(  3-N ,  9-C ) :  -0.0911 B(  3-N , 16-H ) :  -0.0920 B(  3-N , 21-H ) :   0.6656 
B(  3-N , 22-H ) :   0.6649 B(  4-C ,  5-C ) :   0.6517 B(  4-C ,  6-C ) :   0.6593 
B(  4-C ,  7-C ) :  -0.1045 B(  4-C ,  8-C ) :  -0.1120 B(  4-C , 14-H ) :   0.7346 
B(  4-C , 15-H ) :   0.7316 B(  4-C , 16-H ) :  -0.0991 B(  5-C ,  6-C ) :  -0.0700 
B(  5-C ,  9-C ) :   0.5382 B(  5-C , 14-H ) :  -0.0816 B(  5-C , 15-H ) :  -0.0728 
B(  5-C , 16-H ) :   0.7476 B(  5-C , 21-H ) :  -0.0679 B(  5-C , 22-H ) :  -0.0678 
B(  6-C ,  7-C ) :   1.0782 B(  6-C ,  8-C ) :   1.1028 B(  6-C , 10-C ) :  -0.0604 
B(  6-C , 12-C ) :  -0.0680 B(  6-C , 14-H ) :  -0.0568 B(  6-C , 15-H ) :  -0.0508 
B(  6-C , 17-H ) :  -0.0862 B(  6-C , 18-H ) :  -0.0889 B(  7-C ,  8-C ) :  -0.0621 
B(  7-C , 10-C ) :   1.0297 B(  7-C , 11-C ) :  -0.0947 B(  7-C , 17-H ) :   0.7277 
B(  7-C , 19-H ) :  -0.0730 B(  8-C , 10-C ) :  -0.0872 B(  8-C , 11-C ) :   0.9404 
B(  8-C , 18-H ) :   0.7203 B(  8-C , 20-H ) :  -0.0658 B(  9-C , 16-H ) :  -0.1110 
B( 10-C , 11-C ) :  -0.1099 B( 10-C , 12-C ) :   1.0796 B( 10-C , 17-H ) :  -0.0763 
B( 10-C , 19-H ) :   0.7072 B( 11-C , 12-C ) :   0.9534 B( 11-C , 18-H ) :  -0.0771 
B( 11-C , 20-H ) :   0.7237 B( 12-C , 13-C ) :  -0.0928 B( 12-C , 19-H ) :  -0.0746 
B( 12-C , 20-H ) :  -0.0926 B( 13-C , 24-H ) :   0.7876 B( 13-C , 25-H ) :   0.7492 
B( 13-C , 26-H ) :   0.7490 B( 14-H , 15-H ) :  -0.0649 B( 21-H , 22-H ) :  -0.0651 
B( 24-H , 25-H ) :  -0.0654 B( 24-H , 26-H ) :  -0.0655 B( 25-H , 26-H ) :  -0.1021 



                     *******************************
                     * LOEWDIN POPULATION ANALYSIS *
                     *******************************

----------------------
LOEWDIN ATOMIC CHARGES
----------------------
   0 O :   -0.167907
   1 O :   -0.149481
   2 O :   -0.232714
   3 N :   -0.255143
   4 C :   -0.106165
   5 C :   -0.037927
   6 C :   -0.037335
   7 C :   -0.066812
   8 C :   -0.067267
   9 C :    0.141668
  10 C :   -0.091669
  11 C :   -0.123667
  12 C :    0.079051
  13 C :   -0.040503
  14 H :    0.070671
  15 H :    0.086456
  16 H :    0.058091
  17 H :    0.077971
  18 H :    0.068754
  19 H :    0.080340
  20 H :    0.074214
  21 H :    0.127601
  22 H :    0.124508
  23 H :    0.186097
  24 H :    0.077406
  25 H :    0.061946
  26 H :    0.061815

-------------------------------
LOEWDIN REDUCED ORBITAL CHARGES
-------------------------------
  0 O s       :     3.465864  s :     3.465864
      pz      :     1.671289  p :     4.635835
      px      :     1.306951
      py      :     1.657594
      dz2     :     0.009313  d :     0.066208
      dxz     :     0.014255
      dyz     :     0.007772
      dx2y2   :     0.014767
      dxy     :     0.020101

  1 O s       :     3.476636  s :     3.476636
      pz      :     1.621475  p :     4.623320
      px      :     1.661026
      py      :     1.340819
      dz2     :     0.011562  d :     0.049525
      dxz     :     0.011958
      dyz     :     0.007618
      dx2y2   :     0.013809
      dxy     :     0.004578

  2 O s       :     3.562373  s :     3.562373
      pz      :     1.495498  p :     4.614863
      px      :     1.459010
      py      :     1.660355
      dz2     :     0.010780  d :     0.055479
      dxz     :     0.012150
      dyz     :     0.014411
      dx2y2   :     0.007731
      dxy     :     0.010408

  3 N s       :     3.218530  s :     3.218530
      pz      :     1.544965  p :     3.977787
      px      :     1.208955
      py      :     1.223868
      dz2     :     0.011116  d :     0.058825
      dxz     :     0.015950
      dyz     :     0.001698
      dx2y2   :     0.022353
      dxy     :     0.007708

  4 C s       :     2.894143  s :     2.894143
      pz      :     1.051027  p :     3.129646
      px      :     1.016285
      py      :     1.062335
      dz2     :     0.018070  d :     0.082376
      dxz     :     0.021680
      dyz     :     0.007607
      dx2y2   :     0.023801
      dxy     :     0.011218

  5 C s       :     2.883425  s :     2.883425
      pz      :     1.060368  p :     3.027142
      px      :     0.954961
      py      :     1.011813
      dz2     :     0.025196  d :     0.127360
      dxz     :     0.034216
      dyz     :     0.010113
      dx2y2   :     0.037990
      dxy     :     0.019846

  6 C s       :     2.870842  s :     2.870842
      pz      :     1.010296  p :     3.065971
      px      :     1.015362
      py      :     1.040313
      dz2     :     0.013113  d :     0.100521
      dxz     :     0.017399
      dyz     :     0.015182
      dx2y2   :     0.027861
      dxy     :     0.026967

  7 C s       :     2.896752  s :     2.896752
      pz      :     1.003396  p :     3.085097
      px      :     1.050096
      py      :     1.031604
      dz2     :     0.007461  d :     0.084964
      dxz     :     0.016311
      dyz     :     0.012406
      dx2y2   :     0.023169
      dxy     :     0.025617

  8 C s       :     2.894843  s :     2.894843
      pz      :     1.004593  p :     3.086862
      px      :     1.048104
      py      :     1.034165
      dz2     :     0.009897  d :     0.085562
      dxz     :     0.018559
      dyz     :     0.009966
      dx2y2   :     0.024149
      dxy     :     0.022992

  9 C s       :     2.855651  s :     2.855651
      pz      :     0.872280  p :     2.716643
      px      :     0.830052
      py      :     1.014311
      dz2     :     0.068391  d :     0.286038
      dxz     :     0.059208
      dyz     :     0.058357
      dx2y2   :     0.059885
      dxy     :     0.040197

 10 C s       :     2.896438  s :     2.896438
      pz      :     1.023129  p :     3.114812
      px      :     1.050388
      py      :     1.041295
      dz2     :     0.009029  d :     0.080418
      dxz     :     0.017901
      dyz     :     0.009226
      dx2y2   :     0.020114
      dxy     :     0.024149

 11 C s       :     2.893619  s :     2.893619
      pz      :     1.047580  p :     3.148951
      px      :     1.057240
      py      :     1.044131
      dz2     :     0.007176  d :     0.081096
      dxz     :     0.015385
      dyz     :     0.012008
      dx2y2   :     0.022459
      dxy     :     0.024069

 12 C s       :     2.852990  s :     2.852990
      pz      :     0.994581  p :     2.902403
      px      :     0.878611
      py      :     1.029211
      dz2     :     0.020146  d :     0.165557
      dxz     :     0.032993
      dyz     :     0.018634
      dx2y2   :     0.045016
      dxy     :     0.048767

 13 C s       :     2.913749  s :     2.913749
      pz      :     1.012389  p :     3.013522
      px      :     0.964433
      py      :     1.036700
      dz2     :     0.030259  d :     0.113232
      dxz     :     0.019674
      dyz     :     0.017109
      dx2y2   :     0.019339
      dxy     :     0.026851

 14 H s       :     0.890723  s :     0.890723
      pz      :     0.006982  p :     0.038605
      px      :     0.006603
      py      :     0.025020

 15 H s       :     0.873695  s :     0.873695
      pz      :     0.021933  p :     0.039849
      px      :     0.009300
      py      :     0.008616

 16 H s       :     0.901519  s :     0.901519
      pz      :     0.022123  p :     0.040390
      px      :     0.009878
      py      :     0.008390

 17 H s       :     0.881576  s :     0.881576
      pz      :     0.013746  p :     0.040454
      px      :     0.014196
      py      :     0.012511

 18 H s       :     0.891465  s :     0.891465
      pz      :     0.010773  p :     0.039781
      px      :     0.007748
      py      :     0.021260

 19 H s       :     0.878642  s :     0.878642
      pz      :     0.011076  p :     0.041018
      px      :     0.008055
      py      :     0.021888

 20 H s       :     0.883714  s :     0.883714
      pz      :     0.014707  p :     0.042072
      px      :     0.014224
      py      :     0.013141

 21 H s       :     0.795629  s :     0.795629
      pz      :     0.037419  p :     0.076770
      px      :     0.024959
      py      :     0.014392

 22 H s       :     0.798194  s :     0.798194
      pz      :     0.020300  p :     0.077298
      px      :     0.013028
      py      :     0.043969

 23 H s       :     0.700259  s :     0.700259
      pz      :     0.022202  p :     0.113644
      px      :     0.023284
      py      :     0.068157

 24 H s       :     0.884552  s :     0.884552
      pz      :     0.005836  p :     0.038042
      px      :     0.020516
      py      :     0.011691

 25 H s       :     0.899004  s :     0.899004
      pz      :     0.008684  p :     0.039050
      px      :     0.006550
      py      :     0.023816

 26 H s       :     0.899136  s :     0.899136
      pz      :     0.025410  p :     0.039049
      px      :     0.007279
      py      :     0.006360


---------------------------------
LOEWDIN BOND ORDERS (THRESH 0.050000)
---------------------------------
B(  0-O , 10-C ) :   0.0903 B(  0-O , 11-C ) :   0.0991 B(  0-O , 12-C ) :   1.2713 
B(  0-O , 13-C ) :   1.1407 B(  1-O ,  2-O ) :   0.2079 B(  1-O ,  5-C ) :   0.0652 
B(  1-O ,  9-C ) :   1.3956 B(  1-O , 23-H ) :   0.9851 B(  2-O ,  5-C ) :   0.0844 
B(  2-O ,  9-C ) :   2.2170 B(  3-N ,  4-C ) :   0.0521 B(  3-N ,  5-C ) :   1.1428 
B(  3-N ,  9-C ) :   0.0555 B(  3-N , 21-H ) :   0.9866 B(  3-N , 22-H ) :   0.9850 
B(  4-C ,  5-C ) :   0.9955 B(  4-C ,  6-C ) :   1.0393 B(  4-C ,  7-C ) :   0.0605 
B(  4-C ,  8-C ) :   0.0615 B(  4-C ,  9-C ) :   0.0532 B(  4-C , 14-H ) :   0.9213 
B(  4-C , 15-H ) :   0.9231 B(  5-C ,  9-C ) :   0.9781 B(  5-C , 16-H ) :   0.9042 
B(  6-C ,  7-C ) :   1.4094 B(  6-C ,  8-C ) :   1.4482 B(  6-C , 10-C ) :   0.0741 
B(  6-C , 11-C ) :   0.0749 B(  6-C , 12-C ) :   0.0916 B(  7-C ,  8-C ) :   0.0718 
B(  7-C , 10-C ) :   1.5124 B(  7-C , 11-C ) :   0.1030 B(  7-C , 12-C ) :   0.0771 
B(  7-C , 17-H ) :   0.9191 B(  8-C , 10-C ) :   0.1116 B(  8-C , 11-C ) :   1.4676 
B(  8-C , 12-C ) :   0.0781 B(  8-C , 18-H ) :   0.9219 B(  9-C , 23-H ) :   0.0570 
B( 10-C , 11-C ) :   0.0730 B( 10-C , 12-C ) :   1.3847 B( 10-C , 19-H ) :   0.9197 
B( 11-C , 12-C ) :   1.4097 B( 11-C , 20-H ) :   0.9169 B( 12-C , 13-C ) :   0.0568 
B( 13-C , 24-H ) :   0.9607 B( 13-C , 25-H ) :   0.9556 B( 13-C , 26-H ) :   0.9556 


------------------------------------------
LOEWDIN REDUCED ORBITAL POPULATIONS PER MO
-------------------------------------------
THRESHOLD FOR PRINTING IS 0.1%%
                      0         1         2         3         4         5   
                 -19.18617 -19.16808 -19.12360 -14.31423 -10.30434 -10.23758
                   2.00000   2.00000   2.00000   2.00000   2.00000   2.00000
                  --------  --------  --------  --------  --------  --------
 0 O  s               0.0      99.9       0.0       0.0       0.0       0.0
 0 O  px              0.0       0.0       0.0       0.0       0.0       0.2
 1 O  s              99.9       0.0       0.0       0.0       0.0       0.0
 1 O  pz              0.0       0.0       0.0       0.0       0.1       0.0
 2 O  s               0.0       0.0      99.8       0.0       0.1       0.0
 2 O  pz              0.0       0.0       0.0       0.0       0.2       0.0
 2 O  py              0.0       0.0       0.0       0.0       0.1       0.0
 3 N  s               0.0       0.0       0.0      99.7       0.0       0.0
 5 C  py              0.0       0.0       0.0       0.0       0.1       0.0
 9 C  s               0.0       0.0       0.0       0.0      98.9       0.0
11 C  py              0.0       0.0       0.0       0.0       0.0       0.1
12 C  s               0.0       0.0       0.0       0.0       0.0      99.3

                      6         7         8         9        10        11   
                 -10.23401 -10.22008 -10.18479 -10.18137 -10.18028 -10.17884
                   2.00000   2.00000   2.00000   2.00000   2.00000   2.00000
                  --------  --------  --------  --------  --------  --------
 3 N  px              0.0       0.1       0.0       0.0       0.0       0.0
 4 C  s               0.0       0.0      99.4       0.0       0.1       0.0
 4 C  px              0.0       0.0       0.0       0.0       0.1       0.0
 5 C  s               0.0      99.4       0.0       0.0       0.0       0.0
 6 C  s               0.0       0.0       0.1       4.1      93.9       0.0
 6 C  px              0.0       0.0       0.1       0.1       0.0       0.0
 7 C  s               0.0       0.0       0.0       0.0       1.3       0.0
 7 C  py              0.0       0.0       0.0       0.0       0.1       0.0
 8 C  s               0.0       0.0       0.0      94.6       4.0       0.8
 8 C  px              0.0       0.0       0.0       0.0       0.1       0.2
 9 C  py              0.0       0.2       0.0       0.0       0.0       0.0
11 C  s               0.0       0.0       0.0       0.7       0.1      98.6
11 C  px              0.0       0.0       0.0       0.2       0.0       0.0
12 C  py              0.0       0.0       0.0       0.0       0.0       0.2
13 C  s              99.5       0.0       0.0       0.0       0.0       0.0

                     12        13        14        15        16        17   
                 -10.17846 -10.17462  -1.09584  -1.05386  -0.99995  -0.89236
                   2.00000   2.00000   2.00000   2.00000   2.00000   2.00000
                  --------  --------  --------  --------  --------  --------
 0 O  s               0.0       0.0       0.0      56.9       0.0       0.0
 0 O  pz              0.0       0.0       0.0       0.3       0.0       0.0
[...]
 14 H      0.9050     1.0000     0.0950     0.9569     0.9569     0.0000
 15 H      0.8663     1.0000     0.1337     0.9554     0.9554     0.0000
 16 H      0.9038     1.0000     0.0962     0.9512     0.9512     0.0000
 17 H      0.9028     1.0000     0.0972     0.9629     0.9629     0.0000
 18 H      0.9265     1.0000     0.0735     0.9616     0.9616     0.0000
 19 H      0.9069     1.0000     0.0931     0.9621     0.9621     0.0000
 20 H      0.9162     1.0000     0.0838     0.9653     0.9653     0.0000
 21 H      0.7628     1.0000     0.2372     0.9191     0.9191    -0.0000
 22 H      0.7667     1.0000     0.2333     0.9230     0.9230     0.0000
 23 H      0.6776     1.0000     0.3224     0.9143     0.9143     0.0000
 24 H      0.8779     1.0000     0.1221     0.9543     0.9543     0.0000
 25 H      0.8905     1.0000     0.1095     0.9495     0.9495    -0.0000
 26 H      0.8907     1.0000     0.1093     0.9495     0.9495     0.0000

  Mayer bond orders larger than 0.100000
B(  0-O , 12-C ) :   0.9501 B(  0-O , 13-C ) :   0.9218 B(  1-O ,  9-C ) :   1.0825 
B(  1-O , 23-H ) :   0.8526 B(  2-O ,  9-C ) :   1.9326 B(  3-N ,  5-C ) :   1.0056 
B(  3-N , 21-H ) :   0.9104 B(  3-N , 22-H ) :   0.9076 B(  4-C ,  5-C ) :   0.9636 
B(  4-C ,  6-C ) :   0.9853 B(  4-C , 14-H ) :   0.9418 B(  4-C , 15-H ) :   0.9369 
B(  5-C ,  9-C ) :   0.9126 B(  5-C , 16-H ) :   0.9310 B(  6-C ,  7-C ) :   1.4060 
B(  6-C ,  8-C ) :   1.4476 B(  7-C , 10-C ) :   1.4551 B(  7-C , 17-H ) :   0.9343 
B(  8-C , 11-C ) :   1.4102 B(  8-C , 18-H ) :   0.9384 B( 10-C , 12-C ) :   1.3824 
B( 10-C , 19-H ) :   0.9344 B( 11-C , 12-C ) :   1.3762 B( 11-C , 20-H ) :   0.9309 
B( 13-C , 24-H ) :   0.9653 B( 13-C , 25-H ) :   0.9453 B( 13-C , 26-H ) :   0.9453 


-------
TIMINGS
-------

Total SCF time: 0 days 0 hours 1 min 14 sec 

Total time                  ....      74.990 sec
Sum of individual times     ....      73.154 sec  ( 97.6%)

SCF preparation             ....       0.375 sec  (  0.5%)
Fock matrix formation       ....      72.029 sec  ( 96.1%)
  Startup                   ....       0.007 sec  (  0.0% of F)
  Split-RI-J                ....       7.387 sec  ( 10.3% of F)
  Chain of spheres X        ....      55.415 sec  ( 76.9% of F)
  XC integration            ....      10.896 sec  ( 15.1% of F)
    XC Preparation          ....       0.000 sec  (  0.0% of XC)
    Basis function eval.    ....       4.313 sec  ( 39.6% of XC)
    Density eval.           ....       2.399 sec  ( 22.0% of XC)
    XC-Functional eval.     ....       0.591 sec  (  5.4% of XC)
    XC-Potential eval.      ....       2.980 sec  ( 27.3% of XC)
Diagonalization             ....       0.000 sec  (  0.0%)
Density matrix formation    ....       0.050 sec  (  0.1%)
Total Energy calculation    ....       0.024 sec  (  0.0%)
Population analysis         ....       0.300 sec  (  0.4%)
Orbital Transformation      ....       0.035 sec  (  0.0%)
Orbital Orthonormalization  ....       0.000 sec  (  0.0%)
DIIS solution               ....       0.168 sec  (  0.2%)
  MO trafo                  ....       0.000 sec  (  0.0 % of DIIS)
  Orb grad                  ....       0.000 sec  (  0.0 % of DIIS)
  Energy W gradient         ....       0.000 sec  (  0.0 % of DIIS)
  DIIS error                ....       0.036 sec  ( 21.2 % of DIIS)
  DIIS work                 ....       0.110 sec  ( 65.1 % of DIIS)
  Form Q                    ....       0.000 sec  (  0.0 % of DIIS)
  Form QpQm                 ....       0.000 sec  (  0.0 % of DIIS)
  Exp/Cayley                ....       0.000 sec  (  0.0 % of DIIS)
  Orb update                ....       0.000 sec  (  0.0 % of DIIS)
  Wake-sleep                ....       0.005 sec  (  3.1 % of DIIS)
SOSCF solution              ....       0.172 sec  (  0.2%)
  MO trafo                  ....       0.052 sec  ( 30.3 % of SOSCF)
  Orb grad                  ....       0.005 sec  (  2.8 % of SOSCF)
  Rot update                ....       0.021 sec  ( 12.3 % of SOSCF)
  Step                      ....       0.087 sec  ( 50.7 % of SOSCF)
Finished LeanSCF after  75.0 sec

Maximum memory used throughout the entire LEANSCF-calculation: 30.8 MB


-------------------------------------------------------------------------------
                          DFT DISPERSION CORRECTION                            
                                                                               
                              DFTD3 V3.1  Rev 1                                
                          USING Becke-Johnson damping                          
-------------------------------------------------------------------------------
The B3LYP functional is recognized
Active option DFTDOPT                   ...         4   

molecular C6(AA) [au] = 7135.346989 


            DFT-D V3
 parameters
 s6 scaling factor         :     1.0000 
 a1 scaling factor         :     0.3981 
 s8 scaling factor         :     1.9889 
 a2 scaling factor         :     4.4211 
 ad hoc parameters k1-k3   :    16.0000     1.3333    -4.0000 

 Edisp/kcal,au: -31.284376136250  -0.049854821468 
 E6   /kcal   : -14.926811540 
 E8   /kcal   : -16.357564596 
 % E8         :  52.286689448 

-------------------------   ----------------
Dispersion correction           -0.049854821
-------------------------   ----------------


-------------------------   --------------------
FINAL SINGLE POINT ENERGY      -668.982721930925
-------------------------   --------------------



           ************************************************************
           *        Program running with 2 parallel MPI-processes     *
           *              working on a common directory               *
           ************************************************************
------------------------------------------------------------------------------
                            ORCA SCF RESPONSE CALCULATION
------------------------------------------------------------------------------

GBWName                                 ... /kaggle/working/Phe-OMe-2/Phe-OMe_InterFrag.gbw
Number of atoms                         ...     27
Number of basis functions               ...    261
Max core memory                         ...   3000 MB

Electric field perturbation             ... YES
Quadrupolar field perturbation          ...  NO
Magnetic field perturbation (no GIAO)   ...  NO
Magnetic field perturbation (with GIAO) ...  NO
Linear momentum (velocity) perturbation ...  NO
Spin-orbit coupling perturbation        ...  NO
Choice of electric origin               ... Center of mass
Position of electric origin             ...     0.075464    -0.033759     0.072023
Choice of magnetic origin               ... GIAO
Position of magnetic origin             ...     0.000000     0.000000     0.000000
Nuclear geometric perturbations         ...  NO (  81 perturbations)
Nucleus-orbit perturbations             ...  NO (   0 perturbations)
Spin-dipole/Fermi contact perturbations ...  NO (   0 perturbations)

Total number of real perturbations      ...      3
Total number of imaginary perturbations ...      0
Total number of triplet perturbations   ...      0
Total number of SOC perturbations       ...      0

Using XC Grid                  ... (/kaggle/working/Phe-OMe-2/Phe-OMe_InterFrag.grid_cpscf.tmp) 
Recalculating density on grid  ... (/kaggle/working/Phe-OMe-2/Phe-OMe_InterFrag.grho_cpscf0.tmp) done
Calculating the xc-kernel      ... (/kaggle/working/Phe-OMe-2/Phe-OMe_InterFrag.fxc_cpscf0.tmp) done

                                **********************
                                * REAL PERTURBATIONS *
                                **********************



-------------------
SHARK CP-SCF DRIVER
-------------------

Dimension of the orbital basis          ...    261
Dimension of the CPSCF-problem          ...  10868
Number of operators                     ...      1
Max. number of iterations               ...    128
Convergence Tolerance                   ... 1.0e-04
Number of perturbations                 ...      3
Perturbation type                       ... REAL

----------------------------
POPLE LINEAR EQUATION SOLVER
----------------------------

  ITERATION   0:   ||err||_max =   1.8539e+01 (   3.0 sec   0/  3 done)
  ITERATION   1:   ||err||_max =   1.1638e+00 (   2.7 sec   0/  3 done)
  ITERATION   2:   ||err||_max =   4.2686e-01 (   2.7 sec   0/  3 done)
  ITERATION   3:   ||err||_max =   1.3604e-01 (   2.8 sec   0/  3 done)
  ITERATION   4:   ||err||_max =   5.0096e-02 (   2.7 sec   0/  3 done)
  ITERATION   5:   ||err||_max =   1.7313e-02 (   2.8 sec   0/  3 done)
  ITERATION   6:   ||err||_max =   5.9203e-03 (   2.7 sec   0/  3 done)
  ITERATION   7:   ||err||_max =   2.1094e-03 (   2.8 sec   0/  3 done)
  ITERATION   8:   ||err||_max =   5.9700e-04 (   2.7 sec   0/  3 done)
  ITERATION   9:   ||err||_max =   1.7336e-04 (   2.7 sec   1/  3 done)
  ITERATION  10:   ||err||_max =   5.7896e-05 (   2.5 sec   3/  3 done)

CP-SCF equations solved in  30.1 sec
Response densities calculated in   0.0 sec

Maximum memory used throughout the entire SCFRESP-calculation: 35.0 MB


           ************************************************************
           *        Program running with 2 parallel MPI-processes     *
           *              working on a common directory               *
           ************************************************************

------------------------------------------------------------------------------
                              ORCA PROPERTY CALCULATIONS
------------------------------------------------------------------------------

GBWName                                 ... /kaggle/working/Phe-OMe-2/Phe-OMe_InterFrag.gbw
Number of atoms                         ...     27
Number of basis functions               ...    261
Max core memory                         ...   3000 MB

Electric properties:
Dipole moment                           ... YES
Quadrupole moment                       ...  NO
Static polarizability (Dipole/Dipole)   ... YES
Static polarizability (Dipole/Quad.)    ...  NO
Static polarizability (Quad./Quad.)     ...  NO
Static polarizability (Velocity)        ...  NO
Static hyperpolarizability              ...  NO

Atomic electric properties:
Dipole moment                           ...  NO
Quadrupole moment                       ...  NO
Static polarizability                   ...  NO

Choice of electric origin               ... Center of mass
Position of electric origin             ...     0.075464    -0.033759     0.072023

General magnetic properties:
Magnetizability                         ...  NO

EPR properties:
g-Tensor (aka g-matrix)                 ...  NO
Zero-Field splitting spin-orbit         ...  NO
Zero-field splitting spin-spin          ...  NO
Hyperfine couplings                     ...  NO (   0 nuclei)
Quadrupole couplings                    ...  NO (   0 nuclei)
Contact density                         ...  NO (   0 nuclei)

NMR properties:
Chemical shifts                         ...  NO (   0 nuclei)
Spin-rotation constants                 ...  NO (   0 nuclei)
Spin-spin couplings                     ...  NO (   0 nuclei,    0 pairs)

Choice of magnetic origin               ... GIAO
Position of magnetic origin             ...     0.000000     0.000000     0.000000

Properties with geometric perturbations:
SCF Hessian                             ...  NO
IR spectrum                             ...  NO
VCD spectrum                            ...  NO
X-ray spectroscopy properties:
SCF XES/XAS/RIXS spectra                ...  NO

SCF SOC stabilization energy            ...  NO
Diagonal Born-Oppenheimer correction    ...  NO

-------------
DIPOLE MOMENT
-------------

Method             : SCF
Type of density    : Electron Density
Multiplicity       :   1
Irrep              :   0
Energy             :  -668.9328671094567653 Eh
Basis              : AO
                                X                 Y                 Z
Electronic contribution:      3.211294510      -5.484340744      -1.188691911
Nuclear contribution   :     -4.032252278       6.293143602       2.314921263
                        -----------------------------------------
Total Dipole Moment    :     -0.820957768       0.808802858       1.126229352
                        -----------------------------------------
Magnitude (a.u.)       :      1.611374033
Magnitude (Debye)      :      4.095787293



--------------------
Rotational spectrum 
--------------------
 
Rotational constants in cm-1:             0.053414             0.011294             0.010505 
Rotational constants in MHz :          1601.319285           338.593761           314.929617 

Dipole components along the rotational axes: 
x,y,z [a.u.] :    -0.815505    -0.798562     1.137443 
x,y,z [Debye]:    -2.072848    -2.029783     2.891151 

 

Dipole moment calculation done in   0.0 sec 


---------------------------------------------------
STATIC POLARIZABILITY TENSOR (Dipole/Dipole)
---------------------------------------------------

Method             : SCF
Type of density    : Electron Density
Type of derivative : Electric Field (Direction=X)
Multiplicity       :   1
Irrep              :   0
Basis              : AO

The raw cartesian tensor (atomic units):
     159.618645790        11.694264195       -16.619700531  
      11.694264195       109.983997490        14.001300718  
     -16.619700531        14.001300718        84.933254783  
diagonalized tensor: 
      74.006043165       115.966072009       164.563782890  

Orientation: 
       0.227753557        -0.071400802        -0.971097442  
      -0.416541636         0.894303191        -0.163446836  
       0.880125777         0.441728115         0.173939326  

Isotropic polarizability : 118.17863


Polarizability tensor calculation done in   0.0 sec 

Maximum memory used throughout the entire PROP-calculation: 16.1 MB

--------------------------------
SUGGESTED CITATIONS FOR THIS RUN
--------------------------------

Below you find a list of papers that are relevant to this ORCA run
We neither can nor want to force you to cite these papers, but we appreciate if you do
You receive ORCA, which is the product of decades of hard work by many enthusiastic individuals, for free
The only thing we kindly ask in return is that you cite our papers,
We deeply appreciate it, if you show your appreciation for ORCA by not just citing the generic ORCA reference.

Please note that relegating all ORCA citations to the supporting information does *not* help us.
SI sections are not indexed - citations you put there will not count into any citation statistics
But we need these citations in order to attract the funding resources that allow us to do what we are doing

Therefore, if you are a happy ORCA user, please consider citing a few of the papers listed below in the main body of your paper

In addition to the list printed below, the program has created the file /kaggle/working/Phe-OMe-2/Phe-OMe_InterFrag.bibtex that contains the list in bibtex format
You can import this file easily into all common literature databanks and citation aid programs

It goes without saying that in many instances, there are alternative algorithms to achieve similar
results as the ones you have gotten from ORCA. It is, of course, also the case that in some instances
ORCA just re-implements algorithms worked out by others. We are fully aware of that and we are also
fully appreciative of our colleagues work. Hence this citation list should not be read as indicating
that the listed papers, which are focused on our own work, are the only ones worth citing. It simply
meant to make it easier for users to cite ORCA specific papers. It is not a substitute for doing your
own literature research and citing the relevant literature in a scientifically appropriate manner.

List of essential papers. We consider these as the minimum necessary citations

  1. Neese, F.
     Software update: the ORCA program system, version 6.0
     WIRES Comput. Molec. Sci. 2025 15(1), e70019
     doi.org/10.1002/wcms.70019

List of papers to cite with high priority. The work reported in these papers was absolutely
necessary for this run to complete.
Our perspective: the developers of density functionals and basis sets usually get cited in chemistry papers
Good! But without the algorithms to do something with them, the functionals or basis sets would not do anything.
Hence, in our opinion, the algorithm design and method developments papers are equally worthy of getting cited

  1. Neese, F.
     An improvement of the resolution of the identity approximation for the formation of the Coulomb matrix
     J. Comp. Chem. 2003 24(14), 1740-1747
     doi.org/10.1002/jcc.10318
  2. Neese, F.; Wennmohs, F.; Hansen, A.; Becker, U.
     Efficient, approximate and parallel Hartree-Fock and hybrid DFT calculations. A 'chain-of-spheres' algorithm for the Hartree-Fock exchange
     Chem. Phys. 2009 356(1-3), 98-109
     doi.org/10.1016/j.chemphys.2008.10.036
  3. Grimme, S.; Antony, J.; Ehrlich, S.; Krieg, H.
     A consistent and accurate ab initio parametrization of density functional dispersion correction (DFT-D) for the 94 elements H-Pu
     J. Chem. Phys. 2010 132 , 154104
     doi.org/10.1063/1.3382344
  4. Grimme, S.; Ehrlich, S.; Goerigk, L.
     Effect of the damping function in dispersion corrected density functional theory
     J. Comput. Chem. 2011 32(7), 1456-1465
     doi.org/10.1002/jcc.21759
  5. Helmich-Paris, B.; de Souza, B.; Neese, F.; Izsák, R.
     An improved chain of spheres for exchange algorithm
     J. Chem. Phys. 2021 155(10), 104109
     doi.org/10.1063/5.0058766
  6. Neese, F.
     The SHARK Integral Generation and Digestion System
     J. Comp. Chem. 2022 44(3), 381
     doi.org/10.1002/jcc.26942

List of suggested additional citations. These are papers that are important in the 'surrounding' of 
of this run, or papers that preceded the highly important papers. If you like your results we are grateful for a citation.

  1. Izsak, R.; Neese, F.
     An overlap fitted chain of spheres exchange method
     J. Chem. Phys. 2011 135 , 144105
     doi.org/10.1063/1.3646921
  2. Izsak, R.; Hansen, A.; Neese, F.
     The resolution of identity and chain of spheres approximations for the LPNO-CCSD singles Fock term
     Molec. Phys. 2012 110 , 2413-2417
     doi.org/10.1080/00268976.2012.687466
  3. Neese, F.
     The ORCA program system
     WIRES Comput. Molec. Sci. 2012 2(1), 73-78
     doi.org/10.1002/wcms.81
  4. Izsak, R.; Neese, F.; Klopper, W.
     Robust fitting techniques in the chain of spheres approximation to the Fock exchange: The role of the complementary space
     J. Chem. Phys. 2013 139 , 
     doi.org/10.1063/1.4819264
  5. Neese, F.
     Software update: the ORCA program system, version 4.0
     WIRES Comput. Molec. Sci. 2018 8(1), 1-6
     doi.org/10.1002/wcms.1327
  6. Neese, F.; Wennmohs, F.; Becker, U.; Riplinger, C.
     The ORCA quantum chemistry program package
     J. Chem. Phys. 2020 152(22), 224108
     doi.org/10.1063/5.0004608
  7. Neese, F.
     Software update: The ORCA program system—Version 5.0
     WIRES Comput. Molec. Sci. 2022 12(1), e1606
     doi.org/10.1002/wcms.1606

List of optional additional citations

  1. Neese, F.
     Approximate second-order SCF convergence for spin unrestricted wavefunctions
     Chem. Phys. Lett. 2000 325(1-3), 93-98
     doi.org/10.1016/s0009-2614(00)00662-x

Timings for individual modules:

Sum of individual times          ...      110.872 sec (=   1.848 min)
Startup calculation              ...        3.234 sec (=   0.054 min)   2.9 %
SCF iterations                   ...       76.371 sec (=   1.273 min)  68.9 %
SCF Response                     ...       30.841 sec (=   0.514 min)  27.8 %
Property calculations            ...        0.427 sec (=   0.007 min)   0.4 %
                             ****ORCA TERMINATED NORMALLY****
TOTAL RUN TIME: 0 days 0 hours 1 minutes 51 seconds 355 msec
