[Molden Format]
[Title]
 Molden file created by orca_2mkl for BaseName=/kaggle/working/Phe-OMe-2/Phe-OMe_InterFrag

[Atoms] AU
O    1   8         -7.0864956789        -1.3770680002         0.0121055856 
O    2   8          3.3491843039        -2.5276107493         2.6244063014 
O    3   8          5.9629268807        -2.8667863548        -0.7203768303 
N    4   7          7.3079130003         2.2804591375         0.2752499498 
C    5   6          2.9707005051         2.2034376797        -1.3728180062 
C    6   6          4.7587404758         1.3188247511         0.7664918172 
C    7   6          0.2778691102         1.3310512791        -1.0354017358 
C    8   6         -0.5666060354        -0.9402521352        -2.1153443165 
C    9   6         -1.4245057954         2.7104474220         0.4404422495 
C   10   6          4.8087804238        -1.5525933225         0.7815075810 
C   11   6         -3.0213961881        -1.7975339548        -1.7360573842 
C   12   6         -3.8999922287         1.8825659616         0.8436852400 
C   13   6         -4.7025286822        -0.3870310300        -0.2512674354 
C   14   6         -8.8559634211         0.0080823587         1.5084908939 
H   15   1          3.0548197743         4.2718430887        -1.4031594490 
H   16   1          3.7419808883         1.5158154724        -3.1649643517 
H   17   1          3.9562323682         1.9375532126         2.5764507213 
H   18   1          0.7226671784        -2.0518192828        -3.2645207936 
H   19   1         -0.8152939946         4.4758730400         1.2958664683 
H   20   1         -3.6735406769        -3.5509239070        -2.5779700611 
H   21   1         -5.1675978427         3.0078978743         1.9909568732 
H   22   1          8.4175847526         1.8822654951         1.7976133232 
H   23   1          7.1887468703         4.2006816717         0.2108310756 
H   24   1          3.3729249333        -4.3628504096         2.4560940638 
H   25   1        -10.6026542942        -1.0867361462         1.4793626553 
H   26   1         -9.2100697527         1.8864739152         0.7110699291 
H   27   1         -8.2007197815         0.2026126566         3.4635221836 
[GTO]
  1 0
s   6 1.0 
     5484.6717000000         0.8317352088
      825.2349500000         1.5308074829
      188.0469600000         2.4771490916
       52.9645000000         3.2562802462
       16.8975700000         2.7928936336
        5.7996353000         0.9549376963
s   3 1.0 
       15.5396160000        -0.6179336976
        3.5999336000        -0.2757210088
        1.0137618000         0.8142076427
p   3 1.0 
       15.5396160000         3.1169455889
        3.5999336000         2.4014372483
        1.0137618000         1.0543605133
s   1 1.0 
        0.2700058000         0.2669561389
p   1 1.0 
        0.2700058000         0.2774319373
d   1 1.0 
        0.8000000000         1.9292013661

  2 0
s   6 1.0 
     5484.6717000000         0.8317352088
      825.2349500000         1.5308074829
      188.0469600000         2.4771490916
       52.9645000000         3.2562802462
       16.8975700000         2.7928936336
        5.7996353000         0.9549376963
s   3 1.0 
       15.5396160000        -0.6179336976
        3.5999336000        -0.2757210088
        1.0137618000         0.8142076427
p   3 1.0 
       15.5396160000         3.1169455889
        3.5999336000         2.4014372483
        1.0137618000         1.0543605133
s   1 1.0 
        0.2700058000         0.2669561389
p   1 1.0 
        0.2700058000         0.2774319373
d   1 1.0 
        0.8000000000         1.9292013661

  3 0
s   6 1.0 
     5484.6717000000         0.8317352088
      825.2349500000         1.5308074829
      188.0469600000         2.4771490916
       52.9645000000         3.2562802462
       16.8975700000         2.7928936336
        5.7996353000         0.9549376963
s   3 1.0 
       15.5396160000        -0.6179336976
        3.5999336000        -0.2757210088
        1.0137618000         0.8142076427
p   3 1.0 
       15.5396160000         3.1169455889
        3.5999336000         2.4014372483
        1.0137618000         1.0543605133
s   1 1.0 
        0.2700058000         0.2669561389
p   1 1.0 
        0.2700058000         0.2774319373
d   1 1.0 
        0.8000000000         1.9292013661

  4 0
s   6 1.0 
     4173.5110000000         0.6790079572
      627.4579000000         1.2504643275
      142.9021000000         2.0203691378
       40.2343300000         2.6442129843
       12.8202100000         2.2650039968
        4.3904370000         0.7791872309
s   3 1.0 
       11.6263580000        -0.5158738103
        2.7162800000        -0.2550239186
        0.7722180000         0.6727344163
p   3 1.0 
       11.6263580000         2.0680595460
        2.7162800000         1.6100106206
        0.7722180000         0.7644899877
s   1 1.0 
        0.2120313000         0.2226947990
p   1 1.0 
        0.2120313000         0.2050879094
d   1 1.0 
        0.8000000000         1.9292013661

  5 0
s   6 1.0 
     3047.5249000000         0.5363343823
      457.3695100000         0.9894506076
      103.9486900000         1.5972822308
       29.2101550000         2.0791870615
        9.2866630000         1.7741742532
        3.1639270000         0.6125798260
s   3 1.0 
        7.8682724000        -0.3995563516
        1.8812885000        -0.1841552393
        0.5442493000         0.5163903794
p   3 1.0 
        7.8682724000         1.2960827175
        1.8812885000         0.9937536282
        0.5442493000         0.4959527138
s   1 1.0 
        0.1687144000         0.1876178721
p   1 1.0 
        0.1687144000         0.1541275509
d   1 1.0 
        0.8000000000         1.9292013661

  6 0
s   6 1.0 
     3047.5249000000         0.5363343823
      457.3695100000         0.9894506076
      103.9486900000         1.5972822308
       29.2101550000         2.0791870615
        9.2866630000         1.7741742532
        3.1639270000         0.6125798260
s   3 1.0 
        7.8682724000        -0.3995563516
        1.8812885000        -0.1841552393
        0.5442493000         0.5163903794
p   3 1.0 
        7.8682724000         1.2960827175
        1.8812885000         0.9937536282
        0.5442493000         0.4959527138
s   1 1.0 
        0.1687144000         0.1876178721
p   1 1.0 
        0.1687144000         0.1541275509
d   1 1.0 
        0.8000000000         1.9292013661

  7 0
s   6 1.0 
     3047.5249000000         0.5363343823
      457.3695100000         0.9894506076
      103.9486900000         1.5972822308
       29.2101550000         2.0791870615
        9.2866630000         1.7741742532
        3.1639270000         0.6125798260
s   3 1.0 
        7.8682724000        -0.3995563516
        1.8812885000        -0.1841552393
        0.5442493000         0.5163903794
p   3 1.0 
        7.8682724000         1.2960827175
        1.8812885000         0.9937536282
        0.5442493000         0.4959527138
s   1 1.0 
        0.1687144000         0.1876178721
p   1 1.0 
        0.1687144000         0.1541275509
d   1 1.0 
        0.8000000000         1.9292013661

  8 0
s   6 1.0 
     3047.5249000000         0.5363343823
      457.3695100000         0.9894506076
      103.9486900000         1.5972822308
       29.2101550000         2.0791870615
        9.2866630000         1.7741742532
        3.1639270000         0.6125798260
s   3 1.0 
        7.8682724000        -0.3995563516
        1.8812885000        -0.1841552393
        0.5442493000         0.5163903794
p   3 1.0 
        7.8682724000         1.2960827175
        1.8812885000         0.9937536282
        0.5442493000         0.4959527138
s   1 1.0 
        0.1687144000         0.1876178721
p   1 1.0 
        0.1687144000         0.1541275509
d   1 1.0 
        0.8000000000         1.9292013661

  9 0
s   6 1.0 
     3047.5249000000         0.5363343823
      457.3695100000         0.9894506076
      103.9486900000         1.5972822308
       29.2101550000         2.0791870615
        9.2866630000         1.7741742532
        3.1639270000         0.6125798260
s   3 1.0 
        7.8682724000        -0.3995563516
        1.8812885000        -0.1841552393
        0.5442493000         0.5163903794
p   3 1.0 
        7.8682724000         1.2960827175
        1.8812885000         0.9937536282
        0.5442493000         0.4959527138
s   1 1.0 
        0.1687144000         0.1876178721
p   1 1.0 
        0.1687144000         0.1541275509
d   1 1.0 
        0.8000000000         1.9292013661

 10 0
s   6 1.0 
     3047.5249000000         0.5363343823
      457.3695100000         0.9894506076
      103.9486900000         1.5972822308
       29.2101550000         2.0791870615
        9.2866630000         1.7741742532
        3.1639270000         0.6125798260
s   3 1.0 
        7.8682724000        -0.3995563516
        1.8812885000        -0.1841552393
        0.5442493000         0.5163903794
p   3 1.0 
        7.8682724000         1.2960827175
        1.8812885000         0.9937536282
        0.5442493000         0.4959527138
s   1 1.0 
        0.1687144000         0.1876178721
p   1 1.0 
        0.1687144000         0.1541275509
d   1 1.0 
        0.8000000000         1.9292013661

 11 0
s   6 1.0 
     3047.5249000000         0.5363343823
      457.3695100000         0.9894506076
      103.9486900000         1.5972822308
       29.2101550000         2.0791870615
        9.2866630000         1.7741742532
        3.1639270000         0.6125798260
s   3 1.0 
        7.8682724000        -0.3995563516
        1.8812885000        -0.1841552393
        0.5442493000         0.5163903794
p   3 1.0 
        7.8682724000         1.2960827175
        1.8812885000         0.9937536282
        0.5442493000         0.4959527138
s   1 1.0 
        0.1687144000         0.1876178721
p   1 1.0 
        0.1687144000         0.1541275509
d   1 1.0 
        0.8000000000         1.9292013661

 12 0
s   6 1.0 
     3047.5249000000         0.5363343823
      457.3695100000         0.9894506076
      103.9486900000         1.5972822308
       29.2101550000         2.0791870615
        9.2866630000         1.7741742532
        3.1639270000         0.6125798260
s   3 1.0 
        7.8682724000        -0.3995563516
        1.8812885000        -0.1841552393
        0.5442493000         0.5163903794
p   3 1.0 
        7.8682724000         1.2960827175
        1.8812885000         0.9937536282
        0.5442493000         0.4959527138
s   1 1.0 
        0.1687144000         0.1876178721
p   1 1.0 
        0.1687144000         0.1541275509
d   1 1.0 
        0.8000000000         1.9292013661

 13 0
s   6 1.0 
     3047.5249000000         0.5363343823
      457.3695100000         0.9894506076
      103.9486900000         1.5972822308
       29.2101550000         2.0791870615
        9.2866630000         1.7741742532
        3.1639270000         0.6125798260
s   3 1.0 
        7.8682724000        -0.3995563516
        1.8812885000        -0.1841552393
        0.5442493000         0.5163903794
p   3 1.0 
        7.8682724000         1.2960827175
        1.8812885000         0.9937536282
        0.5442493000         0.4959527138
s   1 1.0 
        0.1687144000         0.1876178721
p   1 1.0 
        0.1687144000         0.1541275509
d   1 1.0 
        0.8000000000         1.9292013661

 14 0
s   6 1.0 
     3047.5249000000         0.5363343823
      457.3695100000         0.9894506076
      103.9486900000         1.5972822308
       29.2101550000         2.0791870615
        9.2866630000         1.7741742532
        3.1639270000         0.6125798260
s   3 1.0 
        7.8682724000        -0.3995563516
        1.8812885000        -0.1841552393
        0.5442493000         0.5163903794
p   3 1.0 
        7.8682724000         1.2960827175
        1.8812885000         0.9937536282
        0.5442493000         0.4959527138
s   1 1.0 
        0.1687144000         0.1876178721
p   1 1.0 
        0.1687144000         0.1541275509
d   1 1.0 
        0.8000000000         1.9292013661

 15 0
s   3 1.0 
       18.7311370000         0.2149354183
        2.8253937000         0.3645711272
        0.6401217000         0.4150514277
s   1 1.0 
        0.1612778000         0.1813806839
p   1 1.0 
        1.1000000000         1.6057611426

 16 0
s   3 1.0 
       18.7311370000         0.2149354183
        2.8253937000         0.3645711272
        0.6401217000         0.4150514277
s   1 1.0 
        0.1612778000         0.1813806839
p   1 1.0 
        1.1000000000         1.6057611426

 17 0
s   3 1.0 
       18.7311370000         0.2149354183
        2.8253937000         0.3645711272
        0.6401217000         0.4150514277
s   1 1.0 
        0.1612778000         0.1813806839
p   1 1.0 
        1.1000000000         1.6057611426

 18 0
s   3 1.0 
       18.7311370000         0.2149354183
        2.8253937000         0.3645711272
        0.6401217000         0.4150514277
s   1 1.0 
        0.1612778000         0.1813806839
p   1 1.0 
        1.1000000000         1.6057611426

 19 0
s   3 1.0 
       18.7311370000         0.2149354183
        2.8253937000         0.3645711272
        0.6401217000         0.4150514277
s   1 1.0 
        0.1612778000         0.1813806839
p   1 1.0 
        1.1000000000         1.6057611426

 20 0
s   3 1.0 
       18.7311370000         0.2149354183
        2.8253937000         0.3645711272
        0.6401217000         0.4150514277
s   1 1.0 
        0.1612778000         0.1813806839
p   1 1.0 
        1.1000000000         1.6057611426

 21 0
s   3 1.0 
       18.7311370000         0.2149354183
        2.8253937000         0.3645711272
        0.6401217000         0.4150514277
s   1 1.0 
        0.1612778000         0.1813806839
p   1 1.0 
        1.1000000000         1.6057611426

 22 0
s   3 1.0 
       18.7311370000         0.2149354183
        2.8253937000         0.3645711272
        0.6401217000         0.4150514277
s   1 1.0 
        0.1612778000         0.1813806839
p   1 1.0 
        1.1000000000         1.6057611426

 23 0
s   3 1.0 
       18.7311370000         0.2149354183
        2.8253937000         0.3645711272
        0.6401217000         0.4150514277
s   1 1.0 
        0.1612778000         0.1813806839
p   1 1.0 
        1.1000000000         1.6057611426

 24 0
s   3 1.0 
       18.7311370000         0.2149354183
        2.8253937000         0.3645711272
        0.6401217000         0.4150514277
s   1 1.0 
        0.1612778000         0.1813806839
p   1 1.0 
        1.1000000000         1.6057611426

 25 0
s   3 1.0 
       18.7311370000         0.2149354183
        2.8253937000         0.3645711272
        0.6401217000         0.4150514277
s   1 1.0 
        0.1612778000         0.1813806839
p   1 1.0 
        1.1000000000         1.6057611426

 26 0
s   3 1.0 
       18.7311370000         0.2149354183
        2.8253937000         0.3645711272
        0.6401217000         0.4150514277
s   1 1.0 
        0.1612778000         0.1813806839
p   1 1.0 
        1.1000000000         1.6057611426

 27 0
s   3 1.0 
       18.7311370000         0.2149354183
        2.8253937000         0.3645711272
        0.6401217000         0.4150514277
s   1 1.0 
        0.1612778000         0.1813806839
p   1 1.0 
        1.1000000000         1.6057611426

[5D]
[7F]
[9G]
[MO]
 Sym=     1a
 Ene= -1.91861732941796E+01
 Spin= Alpha
 Occup= 2.000000
  1      -0.000032890445
  2      -0.000020195296
  3      -0.000001882186
  4       0.000001575085
  5       0.000000051661
  6       0.000141820065
  7       0.000058296425
  8      -0.000005646283
  9      -0.000027728570
 10      -0.000000210828
 11      -0.000003477265
 12      -0.000007239897
 13       0.000004332326
 14      -0.000003277138
 15      -0.995104945677
 16      -0.030330852387
 17      -0.001031891800
 18       0.001042767192
 19       0.001410961274
 20       0.021912237128
 21       0.004124889214
 22       0.002196350506
 23      -0.005301986286
 24       0.000615899846
 25      -0.000561507940
 26      -0.000362154749
 27       0.000756222795
 28       0.000202658548
 29       0.000572983073
 30       0.000621945285
 31       0.000011532161
 32       0.000182646866
 33       0.000019432572
 34      -0.002808963297
 35      -0.000669331160
 36      -0.002339407756
 37       0.000617705256
 38       0.000287542729
 39      -0.000173220435
 40      -0.000156346321
 41       0.000467740308
 42       0.000079661846
 43       0.000014816156
 44       0.000271896013
 45      -0.000052991867
 46      -0.000196748017
 47      -0.000008743008
 48       0.000837092235
 49      -0.000670178397
 50       0.001109915476
 51      -0.000594504485
 52      -0.000016962481
 53       0.000099955397
 54       0.000054373991
 55       0.000053992775
 56      -0.000033630686
 57      -0.000027113426
 58      -0.000219160150
 59       0.000145688790
 60      -0.000029056079
 61       0.000029417769
 62       0.001552458113
 63       0.001953013770
 64       0.000053372257
 65       0.000460720219
 66      -0.000049025601
 67       0.000064092712
 68      -0.000068934508
 69       0.000070350224
 70      -0.000074926829
 71       0.000069055926
 72       0.000971703216
 73       0.000014839289
 74      -0.000240993147
 75      -0.000195631305
 76      -0.002973316996
 77      -0.001531074800
 78      -0.000018336173
 79       0.004450691065
 80      -0.000072843897
 81       0.000028000199
 82      -0.000208489523
 83      -0.000074255133
 84       0.000214196503
 85      -0.000038573407
 86      -0.000441910609
 87      -0.000138300940
 88       0.000047612525
 89       0.000041450995
 90       0.001502905208
 91       0.001391036288
 92      -0.000415748423
 93      -0.000738119474
 94      -0.000028769426
 95       0.000053071085
 96      -0.000031235818
 97      -0.000008457298
 98       0.000032256471
 99      -0.000014543760
100      -0.000224474527
101      -0.000104558982
102       0.000037843222
103      -0.000055778513
104       0.000137778921
105      -0.000140499763
106      -0.000690569809
107       0.000100977389
108       0.000018202325
109       0.000005275684
110       0.000012949940
111      -0.000018291256
112      -0.000061816147
113      -0.000010590958
114      -0.000062291444
115       0.000025680887
116      -0.000008830487
117      -0.000008280407
118       0.000990684766
119      -0.000090787099
120      -0.000471267332
121      -0.000309176647
122      -0.000003353249
123      -0.000025589788
124       0.000024850918
125       0.000002034462
126      -0.000002206616
127      -0.000033162363
128       0.000005289265
129       0.000281701525
130       0.000329368274
131      -0.000573005300
132      -0.007845051741
133       0.007218506957
134       0.004247566386
135      -0.008808285241
136       0.000217814439
137      -0.000021543976
138       0.000001891649
139       0.000383988064
140      -0.000083641189
141      -0.000003870405
142      -0.000013784625
143       0.000027069168
144      -0.000019761011
145      -0.000002806234
146       0.000042329530
147      -0.000510271835
148       0.000351709110
149       0.000184234266
150      -0.000006495560
151      -0.000026522546
152      -0.000006503781
153      -0.000002507397
154       0.000014372722
155       0.000004732459
156       0.000025685092
157      -0.000010350059
158       0.000000630793
159       0.000004212617
160      -0.000641209490
161      -0.000122006011
162       0.000139401847
163       0.000125041102
164       0.000008763923
165       0.000004815890
166      -0.000000384233
167      -0.000003459543
168      -0.000006068909
169       0.000000619340
170      -0.000008203873
171      -0.000007482974
172      -0.000000816428
173      -0.000001041633
174      -0.000252462162
175       0.000047392756
176       0.000381577283
177       0.000282174656
178      -0.000005257324
179       0.000008410806
180      -0.000005781790
181      -0.000008356513
182       0.000002093703
183       0.000001933778
184       0.000015718432
185       0.000004628673
186       0.000002102448
187       0.000001454563
188      -0.000029321828
189      -0.000048020323
190      -0.000030671596
191      -0.000008749628
192      -0.000000021815
193       0.000000869890
194       0.000000339914
195      -0.000003064094
196       0.000000572917
197      -0.000097141022
198      -0.000099618854
199      -0.000062580694
200      -0.000006705534
201       0.000002495731
202       0.000036779769
203      -0.000704679612
204      -0.000012620729
205       0.000039059136
206      -0.000056000500
207      -0.000082330626
208      -0.001689561501
209      -0.000033627915
210      -0.000057875549
211       0.000014937785
212      -0.000122492274
213      -0.000054272387
214      -0.000003721416
215       0.000009534254
216      -0.000025125740
217       0.000004349141
218       0.000212229352
219       0.000010417874
220      -0.000008299228
221      -0.000003545007
222       0.000026131696
223       0.000097794329
224       0.000026905108
225      -0.000006769894
226       0.000003006678
227       0.000003907078
228      -0.000011679032
229       0.000005036610
230       0.000000395646
231      -0.000001475181
232       0.000135716596
233       0.000402527977
234      -0.000001225880
235      -0.000074594388
236      -0.000037406610
237      -0.000172922775
238      -0.000640215033
239      -0.000019628933
240       0.000045162292
241       0.000033942767
242       0.000434131183
243      -0.000403510858
244      -0.000193305071
245       0.001702085360
246       0.000374492309
247      -0.000003554755
248      -0.000027166553
249      -0.000000203694
250      -0.000001339017
251       0.000000143367
252       0.000002929219
253       0.000013521826
254       0.000002859698
255       0.000000526515
256       0.000001501570
257       0.000007259007
258       0.000011142034
259       0.000000799354
260       0.000001773532
261      -0.000000959865
 Sym=     1a
 Ene= -1.91680816789007E+01
 Spin= Alpha
 Occup= 2.000000
  1      -0.995234117867
  2      -0.031303175049
  3      -0.000630613091
  4      -0.001585975858
  5      -0.000744435028
  6       0.027600021592
  7       0.004177904407
  8       0.005221820869
  9       0.001682495988
 10      -0.000345063428
 11      -0.000285275747
 12       0.000231684698
 13       0.000327461462
 14       0.000232141128
 15       0.000030540876
 16      -0.000014180200
 17       0.000000444457
 18      -0.000004882782
 19      -0.000001504088
 20       0.000073186436
 21       0.000018287028
 22       0.000035991043
 23      -0.000015199013
 24      -0.000000189061
 25      -0.000003294585
 26      -0.000003803455
 27       0.000002289139
 28       0.000000328768
 29       0.000008531358
 30       0.000012737939
 31       0.000005488597
 32       0.000002598159
 33      -0.000001952979
 34      -0.000085813593
 35      -0.000005426025
 36      -0.000045946759
 37      -0.000000090825
 38       0.000003030767
 39      -0.000002758050
 40      -0.000001746471
 41       0.000005869924
 42       0.000000832503
 43       0.000001818383
 44       0.000029395781
 45      -0.000012645758
 46      -0.000005059084
 47      -0.000009325454
 48      -0.000051456719
 49       0.000100763949
 50       0.000040732169
 51       0.000054623246
 52       0.000007695612
 53       0.000000288357
 54       0.000000403678
 55      -0.000004993317
 56      -0.000002390399
 57       0.000011325351
 58       0.000039733893
 59       0.000090149734
 60       0.000008844712
 61      -0.000041722870
 62      -0.002067388213
 63       0.000800068675
 64       0.000191754235
 65       0.000142631235
 66       0.000004326885
 67       0.000014508240
 68      -0.000000694785
 69      -0.000025773909
 70      -0.000005397534
 71       0.000006697233
 72       0.000065252906
 73       0.000002875936
 74       0.000003725109
 75      -0.000009877993
 76      -0.000202120456
 77       0.000096023335
 78       0.000055946278
 79       0.000001221278
 80       0.000009175129
 81      -0.000000150736
 82      -0.000005073187
 83      -0.000001182701
 84       0.000005825676
 85       0.000035300277
 86       0.000281238498
 87      -0.000189181718
 88      -0.000088591959
 89       0.000013603097
 90      -0.003125760194
 91       0.003920275850
 92       0.002018836866
 93      -0.000214216901
 94       0.000020395974
 95       0.000018925744
 96      -0.000062578893
 97       0.000023628744
 98      -0.000002076755
 99      -0.000027085801
100      -0.000049591665
101      -0.000209566071
102       0.000018852141
103       0.000089666413
104       0.007847947210
105      -0.002486095764
106       0.001149731299
107       0.001625471025
108       0.000001191716
109      -0.000034186626
110       0.000018351169
111       0.000011367595
112      -0.000034856212
113      -0.000044091350
114      -0.000178456682
115      -0.000167794977
116      -0.000159221117
117      -0.000037164084
118       0.009620249991
119      -0.003845028062
120      -0.002713084402
121      -0.000239275985
122      -0.000038251050
123       0.000015035770
124       0.000031490082
125      -0.000011378738
126       0.000068054184
127      -0.000002200373
128      -0.000020780614
129      -0.000001658440
130      -0.000001805374
131       0.000001924594
132       0.000119429128
133       0.000064084234
134       0.000082768409
135      -0.000112891918
136      -0.000001090100
137       0.000001259825
138       0.000003450419
139      -0.000005410984
140      -0.000007634058
141       0.000063862990
142       0.000550531793
143       0.000066756184
144       0.000082007219
145       0.000027118936
146      -0.009206597157
147      -0.003860875457
148      -0.006438886399
149      -0.002547620078
150       0.000066079459
151      -0.000110280811
152      -0.000231743487
153       0.000253629926
154      -0.000159044804
155       0.000057277730
156       0.000414780298
157       0.000258665459
158       0.000034239392
159      -0.000071568352
160      -0.009145563517
161      -0.009306579328
162       0.001393269433
163       0.004248842764
164      -0.000045589167
165       0.000241116018
166      -0.000207463021
167       0.000013567822
168       0.000319896740
169      -0.000119890268
170      -0.001272490343
171       0.000267608552
172       0.000087368199
173      -0.000044510036
174      -0.000956282314
175       0.016523895520
176       0.004503398069
177      -0.003280100974
178       0.000047907222
179       0.000186406433
180      -0.000138034748
181      -0.000081047456
182       0.000118915214
183       0.000077295736
184       0.000240111869
185      -0.000618628353
186       0.000410962034
187       0.000478315023
188      -0.006726054654
189      -0.001977030154
190       0.000530869411
191       0.001047672198
192      -0.000027555319
193      -0.000049305134
194       0.000233943461
195      -0.000145557088
196      -0.000042527417
197       0.000003480399
198       0.000175080650
199      -0.000009767814
200      -0.000008967795
201      -0.000005918051
202       0.000058780149
203       0.000197935581
204      -0.000023044187
205       0.000002985307
206       0.000010371322
207       0.000003042184
208       0.000067846828
209      -0.000003173642
210      -0.000003883759
211      -0.000004752129
212      -0.000023640205
213       0.000329264695
214       0.000051106328
215      -0.000020196431
216      -0.000031965750
217      -0.000068866604
218       0.000421766266
219       0.000104710211
220       0.000044329160
221      -0.000011708964
222      -0.000268776965
223      -0.002313004053
224       0.000013644411
225       0.000095320535
226       0.000053324481
227      -0.000447298226
228      -0.002693738893
229       0.000153583649
230       0.000009111162
231      -0.000051071709
232      -0.000012216782
233      -0.000042310085
234       0.000000252996
235      -0.000004362712
236       0.000004359325
237       0.000015631994
238      -0.000078893085
239       0.000000215903
240       0.000005996472
241      -0.000002460814
242       0.000006093223
243       0.000022501557
244       0.000000742505
245       0.000002880499
246      -0.000001435751
247       0.000414317911
248       0.000458193791
249       0.000206308235
250      -0.000004212113
251      -0.000077880715
252       0.000563958035
253       0.001063389936
254       0.000224743074
255      -0.000213783842
256      -0.000053833260
257       0.000564165228
258       0.001064281695
259       0.000147367685
260      -0.000085251584
261      -0.000264461870
 Sym=     1a
 Ene= -1.91235987582451E+01
 Spin= Alpha
 Occup= 2.000000
  1      -0.000006671435
  2       0.000011092811
  3       0.000002568190
  4      -0.000003075912
  5       0.000001845766
  6      -0.000121337710
  7      -0.000061403408
  8       0.000042567689
  9       0.000012385682
 10      -0.000003474311
 11      -0.000003234008
 12       0.000003366456
 13      -0.000009476580
 14       0.000005473884
 15      -0.000520735900
 16       0.000647033597
 17       0.000086149092
 18       0.000250962285
 19      -0.000024350233
 20      -0.003592796417
 21      -0.000275494468
 22      -0.002840398450
 23      -0.000069410644
 24       0.000260777936
 25      -0.000157639388
 26       0.000283916118
 27       0.000297449358
 28      -0.000267370330
 29      -0.995206100825
 30      -0.030907351783
 31       0.001160217441
 32      -0.001245645622
 33      -0.001505535676
 34       0.027202442377
 35      -0.004125592187
 36       0.004628362709
 37       0.005225724501
 38       0.000039846452
 39      -0.000213964703
 40       0.000245214362
 41       0.000002880072
 42      -0.000203091737
 43      -0.000031224356
 44      -0.000317435301
 45      -0.000006139964
 46       0.000149560352
 47      -0.000043024820
 48      -0.000208652266
 49       0.000364123776
 50      -0.001315929442
 51       0.000609773391
 52      -0.000014457561
 53      -0.000044951871
 54      -0.000055588194
 55      -0.000080095903
 56       0.000119865982
 57      -0.000098183514