
                                 *****************
                                 * O   R   C   A *
                                 *****************

                                            #,                                       
                                            ###                                      
                                            ####                                     
                                            #####                                    
                                            ######                                   
                                           ########,                                 
                                     ,,################,,,,,                         
                               ,,#################################,,                 
                          ,,##########################################,,             
                       ,#########################################, ''#####,          
                    ,#############################################,,   '####,        
                  ,##################################################,,,,####,       
                ,###########''''           ''''###############################       
              ,#####''   ,,,,##########,,,,          '''####'''          '####       
            ,##' ,,,,###########################,,,                        '##       
           ' ,,###''''                  '''############,,,                           
         ,,##''                                '''############,,,,        ,,,,,,###''
      ,#''                                            '''#######################'''  
     '                                                          ''''####''''         
             ,#######,   #######,   ,#######,      ##                                
            ,#'     '#,  ##    ##  ,#'     '#,    #''#        ,####,    ,#,          
            ##       ##  ##   ,#'  ##            #'  '#       #'       ,# #          
            ##       ##  #######   ##           ,######,      #####,      #          
            '#,     ,#'  ##    ##  '#,     ,#' ,#      #,     #,   #      #          
             '#######'   ##     ##  '#######'  #'      '#     '####' #    #          



                #########################################################
                #                        -***-                          #
                #          Department of theory and spectroscopy        #
                #                                                       #
                #                      Frank Neese                      #
                #                                                       #
                #     Directorship, Architecture, Infrastructure        #
                #                    SHARK, DRIVERS                     #
                #        Core code/Algorithms in most modules           #
                #                                                       #
                #        Max Planck Institute fuer Kohlenforschung      #
                #                Kaiser Wilhelm Platz 1                 #
                #                 D-45470 Muelheim/Ruhr                 #
                #                      Germany                          #
                #                                                       #
                #                  All rights reserved                  #
                #                        -***-                          #
                #########################################################


                         Program Version 6.1.1  -  RELEASE   -
                                (GIT: $487d211c$)
                          ($2025-11-21 10:33:24 +0100$)
                                                                         
                                  - NO-DMRG VERSION -                    
                                                                         


 With contributions from (in alphabetic order):
[Max-Planck-Institut fuer Kohlenforschung]                               
  Daniel Aravena         : Magnetic Suceptibility                        
  Michael Atanasov       : Ab Initio Ligand Field Theory (pilot matlab implementation)
  Alexander A. Auer      : GIAO ZORA, VPT2 properties, NMR spectrum      
  Ute Becker             : All parallelization in ORCA, NUMFREQ, NUMCALC 
  Giovanni Bistoni       : ED, misc. LED, open-shell LED, HFLD           
  Dmytro Bykov           : pre 5.0 version of the SCF Hessian            
  Marcos Casanova-Páez   : Triplet and SCS-CIS(D). UHF-(DLPNO)-IP/EA/STEOM-CCSD. UHF-CVS-IP/STEOM-CCSD   
  Vijay G. Chilkuri      : MRCI spin determinant printing, contributions to CSF-ICE 
  Pauline Colinet        : FMM embedding                                 
  Dipayan Datta          : RHF DLPNO-CCSD density                        
  Achintya Kumar Dutta   : EOM-CC, STEOM-CC                              
  Nicolas Foglia         : Exact transition moments, OPA infrastructure, MCD improvements    
  Dmitry Ganyushin       : Spin-Orbit,Spin-Spin,Magnetic field MRCI      
  Miquel Garcia-Rates    : C-PCM and meta-GGA Hessian, CCSD/C-PCM, Gaussian charge scheme 
  Tiago L. C. Gouveia    : GS-ROHF, GS-ROCIS                             
  Yang Guo               : DLPNO-NEVPT2, F12-NEVPT2, CIM, IAO-localization        
  Andreas Hansen         : Spin unrestricted coupled pair/coupled cluster methods 
  Ingolf Harden          : AUTO-CI MPn and infrastructure                
  Benjamin Helmich-Paris : MC-RPA, TRAH-(SCF,CASSCF), AVAS, COSX integrals, SCF dyn. polar., MC-PDFT, srDFT 
  Lee Huntington         : MR-EOM, pCC                                   
  Robert Izsak           : Overlap fitted RIJCOSX, COSX-SCS-MP3, EOM     
  Riya Kayal             : Wick's Theorem for AUTO-CI, AUTO-CI UHF-CCSDT 
  Emily Kempfer          : AUTO-CI RHF CISDT and CCSDT, approximate NEVPT4
  Christian Kollmar      : KDIIS, OOCD, Brueckner-CCSD(T), CCSD density, CASPT2, CASPT2-K, improved NEVPT2 
  Axel Koslowski         : Symmetry handling                             
  Simone Kossmann        : meta-GGA functionals, TD-DFT gradient, OOMP2, (MP2 Hessian; deprecated post 5.0) 
  Lucas Lang             : DCDCAS, Hyperfine gauge corrections, ICE-SOC+SSC
  Marvin Lechner         : AUTO-CI (C++ implementation), FIC-MRCC        
  Spencer Leger          : CASSCF response                               
  Dagmar Lenk            : GEPOL surface, SMD, ORCA-2-JSON               
  Dimitrios Liakos       : Extrapolation schemes; Compound Job, Property file
  Dimitrios Manganas     : Further ROCIS development; embedding schemes. LFT, Crystal Embedding 
  Dimitrios Pantazis     : SARC Basis sets                               
  Anastasios Papadopoulos: AUTO-CI, single reference methods and gradients 
  Taras Petrenko         : pre 6.0 DFT Hessian and TD-DFT gradient,  ECA, NRVS 
  Petra Pikulova         : Analytic Raman intensities                    
  Peter Pinski           : DLPNO-MP2, DLPNO-MP2 Gradient                 
  Shashank Vittal Rao    : ES-AILFT, MagRelax                            
  Christoph Reimann      : Effective Core Potentials                     
  Marius Retegan         : Local ZFS, SOC                                
  Christoph Riplinger    : Optimizer, TS searches, QM/MM, DLPNO-CCSD(T), (RO)-DLPNO pert. Triples 
  Michael Roemelt        : Original ROCIS implementation, recursive CI coupling coefficients
  Masaaki Saitow         : Open-shell DLPNO-CCSD energy and density      
  Barbara Sandhoefer     : DKH picture change effects                    
  Yorick L. A. Schmerwitz: GMF and freeze-and-release deltaSCF, NEB S-IDPP initial path                    
  Kantharuban Sivalingam : CASSCF convergence/infrastructure, NEVPT2, NEVPT3, NEVPT4(SD), FIC-MRCI and CEPA variants
  Bernardo de Souza      : ESD, SOC TD-DFT                               
  Georgi L. Stoychev     : AutoAux, RI-MP2 NMR, DLPNO-MP2 response, X2C  
  Van Anh Tran           : RI-MP2 g-tensors                              
  Willem Van den Heuvel  : Paramagnetic NMR                              
  Zikuan Wang            : NOTCH, Electric field optimization            
  Frank Wennmohs         : Technical directorship and infrastructure     
  Hang Xu                : AUTO-CI-Response properties                   
                                                                         
[FACCTs GmbH]                                                            
  Markus Bursch, Nicolas Foglia, Miquel Garcia-Rates, Ingolf Harden, Hagen Neugebauer, Anastasios Papadopoulos, 
  Christoph Riplinger, Bernardo de Souza, Georgi L. Stoychev                                                    
                                                                 
  APM, various basis sets, CI-OPT, improved COSX, DLPNO-Multilevel,           
  DOCKER, DRACO, updates on ESD, Fragmentator, GOAT, IRC, LR-CPCM, L-BFGS, MBIS, meta-GGA TD-DFT gradient, ML-optimized integration grids, 
  MM, NACMEs, nearIR, NEB, NEB-TS, NL-DFT gradient (VV10), 2- and 3-layer-ONIOM, interface openCOSMO-RS, QMMM,   
  Crystal-QMMM, RESP, rigid body optimization, SF, symmetry and pop. for TD-DFT, various functionals, SOLVATOR                                   
                                                                         
[Other institutions]                                                     
  V. Asgeirsson          : NEB                                           
  Christoph Bannwarth    : sTDA-DFT, sTD-DFT, PBEh-3c, B97-3c, D3        
  Giovanni Bistoni       : ETS/NOCV, ADLD/ADEX, COVALED                  
  Martin Brehm           : Molecular dynamics                            
  Ronald Cardenas        : ETS/NOCV                                      
  Martina Colucci        : COVALED                                       
  Sebastian Ehlert       : rSCAN, r2SCAN, r2SCAN-3c, D4, dhf basis sets  
  Marvin Friede          : D4 for Fr, Ra, Ac-Lr                          
  Lars Goerigk           : TD-DFT with DH, B97 family of functionals     
  Stefan Grimme          : VdW corrections, initial TS optimization, DFT functionals, gCP, sTDA/sTD-DF 
  Waldemar Hujo          : DFT-NL                                        
  H. Jonsson             : NEB                                           
  Holger Kruse           : gCP                                           
  Marcel Mueller         : wB97X-3c, vDZP basis set                      
  Hagen Neugebauer       : wr2SCAN, Native XTB                           
  Gianluca Regni         : ADLD/ADEX                                     
  Tobias Risthaus        : pre 6.0 range-separated hybrid DFT and stability analysis
  Lukas Wittmann         : regularized MP2, r2SCAN double-hybrids, wr2SCAN        
                                                                         
We gratefully acknowledge several colleagues who have allowed us to      
interface, adapt or use parts of their codes:                            
  Ed Valeev, F. Pavosevic, A. Kumar             : LibInt (2-el integral package), F12 methods 
  Garnet Chan, S. Sharma, J. Yang, R. Olivares  : DMRG                   
  Ulf Ekstrom                                   : XCFun DFT Library      
  Mihaly Kallay                                 : mrcc  (arbitrary order and MRCC methods)
  Frank Weinhold                                : gennbo (NPA and NBO analysis)           
  Simon Mueller                                 : openCOSMO-RS                            
  Christopher J. Cramer and Donald G. Truhlar   : smd solvation model                     
  S Lehtola, MJT Oliveira, MAL Marques          : LibXC Library                           
  Liviu Ungur et al                             : ANISO software                          


 Your calculation uses the libint2 library for the computation of 2-el integrals
 For citations please refer to: http://libint.valeyev.net

 Your ORCA version has been built with support for libXC version: 7.0.0
 For citations please refer to: https://libxc.gitlab.io

 This ORCA versions uses:
   CBLAS   interface :  Fast vector & matrix operations
   LAPACKE interface :  Fast linear algebra routines
   SCALAPACK package :  Parallel linear algebra routines
   Shared memory     :  Shared parallel matrices
   BLAS/LAPACK       :  OpenBLAS 0.3.29  USE64BITINT DYNAMIC_ARCH NO_AFFINITY SkylakeX SINGLE_THREADED
        Core in use  :  SkylakeX
   Copyright (c) 2011-2014, The OpenBLAS Project


  ***********************************
  * Starting time: Sat Mar 21 20:48:31 2026
  * Host name:     a11515f09bcc
  * Process ID:    54
  * Working dir.:  /kaggle/working
  ***********************************

NOTE: MaxCore=3000 MB was set to SCF,MP2,MDCI,CIPSI,MRCI,RASCI and CIS
      => If you want to overwrite this, your respective input block should be placed after the MaxCore statement
Your calculation utilizes the atom-pairwise dispersion correction
with the Becke-Johnson damping scheme (D3BJ)


Your calculation utilizes the SMD solvation module
Please cite in your paper:
Marenich, A. V.; Cramer, C. J.; Truhlar, D. G. J. Phys. Chem. B 2009, 113, 6378 

Warning: RI is on but no J-basis has been assigned. Assigning Def2/J (nothing to worry about!)
================================================================================

----- Orbital basis set information -----
Your calculation utilizes the basis: 6-31G(d,p)
   H-He, Li-Ne : W. J. Hehre, R. Ditchfield and J.A. Pople, J. Chem. Phys. 56, 2257 (1972).
                 Note: He and Ne are unpublished basis sets taken from the Gaussian program.
                 Note: Li and B from J. D. Dill and J. A. Pople, J. Chem. Phys. 62, 2921 (1975).
   Na - Ar     : M. M. Francl, W. J. Pietro, W. J. Hehre, J. S. Binkley, M. S. Gordon, 
                 D. J. DeFrees and J. A. Pople, J. Chem. Phys. 77, 3654 (1982).
   K - Zn      : V. A. Rassolov, J. A. Pople, M. A. Ratner, and T. L. Windus, J. Chem. Phys. 109, 1223 (1998).

----- AuxJ basis set information -----
Your calculation utilizes the auxiliary basis: def2/J
   H-Rn: F. Weigend, Phys. Chem. Chem. Phys. 8, 1057 (2006).
   Fr-Lr: K. Eichkorn, F. Weigend, O. Treutler, R. Ahlrichs; Theor. Chem. Acc. 97, 119 (1997).

================================================================================
                                        WARNINGS
                       Please study these warnings very carefully!
================================================================================


WARNING: Geometry Optimization
  ===> : Switching off AutoStart
         For restart on a previous wavefunction, please use MOREAD

================================================================================
                                       INPUT FILE
================================================================================
NAME = /kaggle/working/Ile-1/Ile_InterFrag.inp
|  1> 
|  2> !RKS B3LYP 6-31G(d,p) TightSCF Opt D3BJ
|  3>  
|  4> %pal nprocs 2 end
|  5> %maxcore 3000
|  6> 
|  7> %cpcm
|  8>   smd true
|  9>   SMDsolvent "WATER"
| 10>   end
| 11> 
| 12> %scf
| 13>   MaxIter 1000
| 14>   SOSCF Start 0.00033
| 15>   end
| 16> end
| 17> 
| 18> %output
| 19>   PrintLevel Normal
| 20>   Print[ P_OrbEn ] 2        # print ALL orbital energies (not just up to LUMO+9) :contentReference[oaicite:10]{index=10}
| 21>   XYZFile true              # writes basename.xyz (handy for reuse) :contentReference[oaicite:11]{index=11}
| 22>   end
| 23> 
| 24> *xyz 0 1
| 25> O        2.536900000     -0.095000000      0.000000000
| 26> O        3.403000000      1.405000000      0.000000000
| 27> N        4.269000000     -1.095000000      0.000000000
| 28> C        5.135000000      0.405000000      0.000000000
| 29> C        4.269000000     -0.095000000      0.000000000
| 30> C        6.001000000     -0.095000000      0.000000000
| 31> C        5.135000000      1.405000000      0.000000000
| 32> C        6.867100000      0.405000000      0.000000000
| 33> C        3.403000000      0.405000000      0.000000000
| 34> H        5.672000000      0.715000000      0.000000000
| 35> H        4.805900000     -0.405000000      0.000000000
| 36> H        5.602500000     -0.569900000      0.000000000
| 37> H        6.399600000     -0.569900000      0.000000000
| 38> H        5.755000000      1.405000000      0.000000000
| 39> H        5.135000000      2.025000000      0.000000000
| 40> H        4.515000000      1.405000000      0.000000000
| 41> H        7.177100000     -0.131900000      0.000000000
| 42> H        7.404000000      0.715000000      0.000000000
| 43> H        6.557100000      0.941900000      0.000000000
| 44> H        3.732100000     -1.405000000      0.000000000
| 45> H        4.805900000     -1.405000000      0.000000000
| 46> H        2.000000000      0.215000000      0.000000000
| 47> *
| 48> 
| 49>                          ****END OF INPUT****
================================================================================

                       *****************************
                       * Geometry Optimization Run *
                       *****************************

Geometry optimization settings:
Update method            Update   .... BFGS
Choice of coordinates    CoordSys .... (2022) Redundant Internals
Initial Hessian          InHess   .... Almloef's Model
Max. no of cycles        MaxIter  .... 66

Convergence Tolerances:
Energy Change            TolE     ....  5.0000e-06 Eh
Max. Gradient            TolMAXG  ....  3.0000e-04 Eh/bohr
RMS Gradient             TolRMSG  ....  1.0000e-04 Eh/bohr
Max. Displacement        TolMAXD  ....  4.0000e-03 bohr
RMS Displacement         TolRMSD  ....  2.0000e-03 bohr
Strict Convergence                .... False

------------------------------------------------------------------------------
                        ORCA OPTIMIZATION COORDINATE SETUP
------------------------------------------------------------------------------

The optimization will be done in redundant internal coordinates (2022)
Making redundant internal coordinates   ...  (2022 redundants) done
Evaluating the initial hessian          ...  (Almloef) done
Evaluating the coordinates              ...  done
Calculating the B-matrix                .... done
Calculating the G-matrix                .... done
The number of degrees of freedom        ....  525

    -----------------------------------------------------------------
                    Redundant Internal Coordinates


    -----------------------------------------------------------------
         Definition                    Initial Value    Approx d2E/dq
    -----------------------------------------------------------------
      1. B(O   1,O   0)                  1.7321         0.142637   
      2. B(C   3,N   2)                  1.7320         0.159285   
      3. B(C   4,O   1)                  1.7320         0.159285   
      4. B(C   4,O   0)                  1.7321         0.159249   
      5. B(C   4,N   2)                  1.0000         2.344745   
      6. B(C   4,C   3)                  1.0000         2.618145   
      7. B(C   5,C   3)                  1.0000         2.618145   
      8. B(C   5,C   4)                  1.7320         0.177869   
      9. B(C   6,C   5)                  1.7320         0.177844   
     10. B(C   6,C   4)                  1.7320         0.177844   
     11. B(C   6,O   1)                  1.7320         0.159308   
     12. B(C   6,C   3)                  1.0000         2.617934   
     13. B(C   7,C   6)                  2.0000         0.066444   
     14. B(C   7,C   5)                  1.0001         2.617313   
     15. B(C   7,C   3)                  1.7321         0.177803   
     16. B(C   8,C   6)                  2.0000         0.066465   
     17. B(C   8,C   4)                  1.0000         2.618145   
     18. B(C   8,C   3)                  1.7320         0.177869   
     19. B(C   8,N   2)                  1.7320         0.159285   
     20. B(C   8,O   1)                  1.0000         2.344745   
     21. B(C   8,O   0)                  1.0001         2.344188   
     22. B(H   9,C   7)                  1.2347         0.211661   
     23. B(H   9,C   6)                  0.8743         0.795236   
     24. B(H   9,C   5)                  0.8743         0.795450   
     25. B(H   9,C   3)                  0.6201         2.023901   
     26. B(H  10,C   5)                  1.2347         0.211661   
     27. B(H  10,C   4)                  0.6200         2.024545   
     28. B(H  10,C   3)                  0.8743         0.795340   
     29. B(H  10,N   2)                  0.8743         0.712412   
     30. B(H  10,O   1)                  2.2900         0.010000   
     31. B(H  11,C   4)                  1.4155         0.108904   
     32. B(H  11,C   3)                  1.0812         0.371936   
     33. B(H  11,H  10)                  0.8135         0.190385   
     34. B(H  11,C   5)                  0.6199         2.024722   
     35. B(H  12,H  11)                  0.7971         0.202200   
     36. B(H  12,C   7)                  1.0812         0.371936   
     37. B(H  12,C   5)                  0.6200         2.024243   
     38. B(H  13,H   9)                  0.6950         0.294249   
     39. B(H  13,C   6)                  0.6200         2.024315   
     40. B(H  13,C   3)                  1.1766         0.261969   
     41. B(H  14,C   6)                  0.6200         2.024315   
     42. B(H  15,C   6)                  0.6200         2.024315   
     43. B(H  15,C   3)                  1.1766         0.261969   
     44. B(H  15,O   1)                  1.1120         0.297482   
     45. B(H  16,C   7)                  0.6200         2.024545   
     46. B(H  16,C   5)                  1.1767         0.261898   
     47. B(H  17,C   7)                  0.6200         2.024545   
     48. B(H  18,C   7)                  0.6200         2.024545   
     49. B(H  18,C   5)                  1.1766         0.261965   
     50. B(H  19,O   0)                  1.7733         0.026206   
     51. B(H  19,C   4)                  1.4158         0.108818   
     52. B(H  19,N   2)                  0.6200         1.813278   
     53. B(H  20,C   4)                  1.4158         0.108818   
     54. B(H  20,N   2)                  0.6200         1.813278   
     55. B(H  21,C   8)                  1.4158         0.108798   
     56. B(H  21,O   0)                  0.6200         1.813278   
     57. A(C   8,O   0,H  21)          120.0005         0.592972   
     58. A(O   1,O   0,C   8)           30.0000         0.415106   
     59. A(O   1,O   0,C   4)           59.9979         0.266425   
     60. A(C   4,O   0,C   8)           29.9979         0.426169   
     61. A(O   1,O   0,H  21)           90.0005         0.354200   
     62. A(C   4,O   0,H  21)          149.9983         0.363197   
     63. A(O   0,O   1,C   4)           60.0014         0.266434   
     64. A(O   0,O   1,C   6)          120.0021         0.266440   
     65. A(O   0,O   1,H  15)          120.0021         0.265156   
     66. A(O   0,O   1,C   8)           30.0021         0.415123   
     67. A(C   4,O   1,C   6)           60.0007         0.272469   
     68. A(C   4,O   1,C   8)           29.9993         0.426205   
     69. A(C   4,O   1,H  15)           60.0007         0.271142   
     70. A(C   8,O   1,H  15)           90.0000         0.423775   
     71. A(C   6,O   1,C   8)           90.0000         0.426215   
     72. A(C   3,N   2,C   8)           59.9985         0.272463   
     73. A(C   3,N   2,H  19)          150.0009         0.363211   
     74. A(C   8,N   2,H  20)          150.0009         0.363211   
     75. A(C   4,N   2,H  10)           37.8871         0.496940   
     76. A(C   4,N   2,H  19)          120.0017         0.592999   
     77. A(C   8,N   2,H  10)           67.8863         0.310949   
     78. A(H  10,N   2,H  19)          157.8887         0.420733   
     79. A(C   3,N   2,H  20)           90.0024         0.363211   
     80. A(C   4,N   2,H  20)          120.0017         0.592999   
     81. A(H  19,N   2,H  20)          119.9967         0.498846   
     82. A(C   8,N   2,H  19)           90.0024         0.363211   
     83. A(C   3,N   2,C   4)           29.9993         0.426205   
     84. A(C   3,N   2,H  10)            7.8878         0.310949   
     85. A(C   4,N   2,C   8)           29.9993         0.426205   
     86. A(H  10,N   2,H  20)           82.1146         0.420733   
     87. A(H  11,C   3,H  15)          173.8205         0.278196   
     88. A(H   9,C   3,H  11)           94.3776         0.389528   
     89. A(H  10,C   3,H  11)           47.7311         0.332262   
     90. A(N   2,C   3,C   5)           89.9985         0.437596   
     91. A(C   6,C   3,H  13)           31.7989         0.429228   
     92. A(N   2,C   3,H  10)            7.8875         0.319233   
     93. A(N   2,C   3,C   6)          150.0007         0.437590   
     94. A(N   2,C   3,H  15)          118.2018         0.268062   
     95. A(C   6,C   3,H  11)          154.3806         0.457317   
     96. A(C   8,C   3,H  13)          121.7989         0.274114   
     97. A(C   5,C   3,H  11)           34.3799         0.457324   
     98. A(H   9,C   3,H  10)          142.1088         0.445940   
     99. A(H  10,C   3,H  13)          170.3128         0.313710   
    100. A(C   6,C   3,C   7)           90.0000         0.449341   
    101. A(H  11,C   3,H  13)          122.5817         0.278196   
    102. A(C   7,C   3,H  15)          121.7989         0.274099   
    103. A(C   8,C   3,H  15)           58.2011         0.274114   
    104. A(C   4,C   3,H  15)           88.2018         0.429234   
    105. A(C   5,C   3,H  15)          151.7996         0.429234   
    106. A(H   9,C   3,H  15)           91.8019         0.366608   
    107. A(C   4,C   3,C   7)          149.9993         0.449348   
    108. A(H   9,C   3,H  13)           28.2041         0.366608   
    109. A(C   4,C   3,C   6)          120.0007         0.751352   
    110. A(C   6,C   3,H  15)           31.7989         0.429228   
    111. A(C   7,C   3,H  13)           58.2011         0.274099   
    112. A(H  13,C   3,H  15)           63.5978         0.263767   
    113. A(C   4,C   3,H  13)          151.7996         0.429234   
    114. A(H  10,C   3,H  15)          126.0894         0.313710   
    115. A(N   2,C   3,H   9)          149.9963         0.373432   
    116. A(C   8,C   3,H  10)           67.8883         0.327014   
    117. A(C   6,C   3,H  10)          157.8883         0.526454   
    118. A(C   7,C   3,H  11)           64.3806         0.289381   
    119. A(C   4,C   3,H  10)           37.8875         0.526462   
    120. A(C   5,C   3,C   7)           30.0007         0.449348   
    121. A(N   2,C   3,C   8)           60.0007         0.278664   
    122. A(C   6,C   3,C   8)           90.0000         0.449371   
    123. A(N   2,C   3,C   4)           30.0000         0.437596   
    124. A(C   4,C   3,C   8)           30.0007         0.449378   
    125. A(C   6,C   3,H   9)           60.0030         0.629435   
    126. A(N   2,C   3,H  11)           55.6187         0.282846   
    127. A(C   4,C   3,H  11)           85.6187         0.457324   
    128. A(C   5,C   3,C   8)          149.9993         0.449378   
    129. A(C   5,C   3,H  10)           82.1110         0.526462   
    130. A(C   7,C   3,H  10)          112.1117         0.326994   
    131. A(C   8,C   3,H   9)          150.0030         0.383045   
    132. A(C   5,C   3,H   9)           59.9978         0.629445   
    133. A(C   8,C   3,H  11)          115.6194         0.289397   
    134. A(C   5,C   3,C   6)          120.0007         0.751352   
    135. A(C   7,C   3,H   9)           29.9970         0.383020   
    136. A(C   5,C   3,H  13)           88.2018         0.429234   
    137. A(N   2,C   3,C   7)          119.9993         0.278648   
    138. A(C   4,C   3,C   5)          119.9985         0.751364   
    139. A(C   5,C   4,C   8)          149.9993         0.449378   
    140. A(C   6,C   4,H  10)           90.0024         0.383056   
    141. A(C   5,C   4,H  19)          112.2861         0.240733   
    142. A(C   3,C   4,H  20)           97.7146         0.367881   
    143. A(O   0,C   4,C   6)          119.9993         0.278648   
    144. A(N   2,C   4,C   5)           90.0000         0.437601   
    145. A(N   2,C   4,H  19)           22.2861         0.358767   
    146. A(C   5,C   4,C   6)           60.0007         0.285068   
    147. A(C   3,C   4,C   6)           30.0000         0.449367   
    148. A(O   1,C   4,C   8)           30.0000         0.437596   
    149. A(O   1,C   4,N   2)          150.0007         0.426205   
    150. A(O   1,C   4,C   3)           89.9985         0.437596   
    151. A(N   2,C   4,C   6)          150.0007         0.437590   
    152. A(H  10,C   4,H  11)           10.3993         0.316606   
    153. A(C   5,C   4,H  10)           30.0017         0.383066   
    154. A(C   6,C   4,H  19)          172.2869         0.240728   
    155. A(O   1,C   4,C   6)           59.9985         0.278658   
    156. A(O   1,C   4,H  20)          172.2869         0.235773   
    157. A(O   0,C   4,N   2)           90.0000         0.426187   
    158. A(O   1,C   4,H  19)          127.7146         0.235773   
    159. A(C   3,C   4,H  19)          142.2869         0.367881   
    160. A(C   8,C   4,H  11)          169.6016         0.367931   
    161. A(C   5,C   4,H  20)           67.7139         0.240733   
    162. A(O   0,C   4,H  10)          149.9983         0.373437   
    163. A(N   2,C   4,H  20)           22.2861         0.358767   
    164. A(O   1,C   4,C   5)          119.9993         0.278664   
    165. A(H  19,C   4,H  20)           44.5723         0.206420   
    166. A(N   2,C   4,C   3)          120.0007         0.729718   
    167. A(C   6,C   4,H  11)           79.6031         0.240756   
    168. A(C   8,C   4,H  20)          142.2869         0.367881   
    169. A(C   6,C   4,H  20)          127.7146         0.240728   
    170. A(H  10,C   4,H  20)           37.7122         0.316565   
    171. A(O   0,C   4,O   1)           60.0007         0.272454   
    172. A(C   3,C   4,C   5)           30.0007         0.449378   
    173. A(O   0,C   4,C   8)           30.0007         0.437579   
    174. A(C   5,C   4,H  11)           19.6024         0.240760   
    175. A(H  11,C   4,H  20)           48.1115         0.206441   
    176. A(N   2,C   4,H  11)           70.3976         0.358816   
    177. A(O   1,C   4,H  11)          139.6016         0.235799   
    178. A(O   0,C   4,H  20)          112.2861         0.235765   
    179. A(O   0,C   4,H  11)          160.3976         0.235791   
    180. A(C   6,C   4,C   8)           89.9985         0.449367   
    181. A(H  10,C   4,H  19)           82.2845         0.316565   
    182. A(C   8,C   4,H  19)           97.7146         0.367881   
    183. A(C   3,C   4,C   8)          119.9985         0.751364   
    184. A(O   0,C   4,H  19)           67.7139         0.235765   
    185. A(N   2,C   4,C   8)          120.0007         0.729718   
    186. A(O   0,C   4,C   3)          149.9993         0.437579   
    187. A(C   3,C   4,H  10)           60.0024         0.629484   
    188. A(N   2,C   4,H  10)           59.9983         0.611821   
    189. A(H  11,C   4,H  19)           92.6838         0.206441   
    190. A(O   1,C   4,H  10)          150.0009         0.373452   
    191. A(C   3,C   4,H  11)           49.6031         0.367931   
    192. A(C   3,C   5,H  18)           88.2044         0.429233   
    193. A(C   4,C   5,C   6)           60.0007         0.285068   
    194. A(H  12,C   5,H  16)           48.1950         0.366602   
    195. A(H  10,C   5,H  16)          163.6613         0.255522   
    196. A(C   3,C   5,C   6)           30.0000         0.449367   
    197. A(C   7,C   5,H  16)           31.7949         0.429189   
    198. A(C   6,C   5,H  16)          121.7963         0.274097   
    199. A(C   3,C   5,H  16)          151.7963         0.429213   
    200. A(C   3,C   5,H  11)           79.9999         0.629494   
    201. A(C   4,C   5,H  11)           49.9992         0.383072   
    202. A(C   7,C   5,H   9)           82.1078         0.526445   
    203. A(C   6,C   5,H   9)            7.8936         0.327014   
    204. A(H   9,C   5,H  16)          113.9027         0.313703   
    205. A(C   4,C   5,H   9)           67.8943         0.327021   
    206. A(C   3,C   5,H   9)           37.8936         0.526476   
    207. A(H  11,C   5,H  16)          128.2038         0.366617   
    208. A(H  11,C   5,H  12)           80.0087         0.530025   
    209. A(H  10,C   5,H  12)          115.4663         0.353538   
    210. A(H   9,C   5,H  12)          162.0978         0.445965   
    211. A(C   6,C   5,H  12)          169.9914         0.383047   
    212. A(C   4,C   5,H  12)          130.0079         0.383056   
    213. A(C   3,C   5,H  12)          160.0086         0.629466   
    214. A(C   4,C   5,H  18)          118.2051         0.274113   
    215. A(C   6,C   5,C   7)           90.0014         0.449341   
    216. A(C   4,C   5,C   7)          150.0021         0.449352   
    217. A(C   3,C   5,C   7)          120.0014         0.751316   
    218. A(H  10,C   5,H  11)           35.4576         0.353552   
    219. A(H   9,C   5,H  11)          117.8935         0.445984   
    220. A(C   7,C   5,H  11)          159.9987         0.629456   
    221. A(C   6,C   5,H  11)          109.9999         0.383062   
    222. A(H  12,C   5,H  18)          111.7870         0.366618   
    223. A(H  10,C   5,H  18)          132.7467         0.255531   
    224. A(C   7,C   5,H  10)          164.5437         0.413179   
    225. A(H   9,C   5,H  18)           50.3108         0.313716   
    226. A(C   7,C   5,H  12)           79.9900         0.629427   
    227. A(C   3,C   5,C   4)           30.0007         0.449378   
    228. A(C   7,C   5,H  18)           31.7970         0.429208   
    229. A(H   9,C   5,H  10)           82.4360         0.303128   
    230. A(H  16,C   5,H  18)           63.5919         0.263755   
    231. A(H  11,C   5,H  18)          168.2043         0.366633   
    232. A(C   6,C   5,H  10)           74.5423         0.265386   
    233. A(C   4,C   5,H  10)           14.5416         0.265392   
    234. A(C   6,C   5,H  18)           58.2044         0.274108   
    235. A(C   3,C   5,H  10)           44.5423         0.413203   
    236. A(C   7,C   6,H  15)          150.0007         0.324310   
    237. A(C   3,C   6,C   4)           29.9993         0.449360   
    238. A(H   9,C   6,H  15)          127.8922         0.445946   
    239. A(C   8,C   6,H  15)           30.0007         0.324327   
    240. A(C   5,C   6,H  15)          119.9993         0.383049   
    241. A(C   4,C   6,H  15)           60.0007         0.383049   
    242. A(C   3,C   6,H  15)           90.0000         0.629460   
    243. A(O   1,C   6,C   4)           60.0007         0.278664   
    244. A(H  13,C   6,H  14)           90.0000         0.530008   
    245. A(H   9,C   6,H  14)          142.1078         0.445946   
    246. A(C   7,C   6,H  14)          119.9993         0.324310   
    247. A(C   5,C   6,H  14)          150.0007         0.383049   
    248. A(C   4,C   6,H  14)          150.0007         0.383049   
    249. A(H  14,C   6,H  15)           90.0000         0.530008   
    250. A(O   1,C   6,H  14)           90.0000         0.373454   
    251. A(C   8,C   6,H   9)           97.8915         0.279471   
    252. A(H   9,C   6,H  13)           52.1078         0.445946   
    253. A(C   8,C   6,H  13)          149.9993         0.324327   
    254. A(C   7,C   6,H   9)           22.1085         0.279457   
    255. A(C   7,C   6,H  13)           29.9993         0.324310   
    256. A(C   5,C   6,H  13)           60.0007         0.383049   
    257. A(C   5,C   6,H   9)            7.8930         0.326999   
    258. A(C   4,C   6,H  13)          119.9993         0.383049   
    259. A(C   3,C   6,H  13)           90.0000         0.629460   
    260. A(C   4,C   6,H   9)           67.8915         0.326999   
    261. A(C   3,C   6,H   9)           37.8922         0.526441   
    262. A(O   1,C   6,H   9)          127.8922         0.319233   
    263. A(C   5,C   6,C   7)           30.0014         0.245897   
    264. A(C   4,C   6,C   7)           90.0000         0.245897   
    265. A(C   3,C   6,C   7)           60.0007         0.377375   
    266. A(C   8,C   6,H  14)          120.0007         0.324327   
    267. A(O   1,C   6,C   3)           90.0000         0.437601   
    268. A(O   1,C   6,C   7)          150.0007         0.240777   
    269. A(C   7,C   6,C   8)          120.0000         0.214565   
    270. A(C   5,C   6,C   8)           89.9985         0.245908   
    271. A(C   4,C   6,C   8)           30.0000         0.245908   
    272. A(C   3,C   6,C   8)           59.9993         0.377396   
    273. A(O   1,C   6,C   8)           30.0007         0.240788   
    274. A(C   4,C   6,C   5)           59.9985         0.285062   
    275. A(C   3,C   6,C   5)           29.9993         0.449360   
    276. A(O   1,C   6,C   5)          119.9993         0.278664   
    277. A(H  16,C   7,H  17)           90.0000         0.530031   
    278. A(H  12,C   7,H  17)          145.6211         0.389550   
    279. A(H   9,C   7,H  17)          135.4567         0.353547   
    280. A(C   6,C   7,H  17)          119.9991         0.324317   
    281. A(C   3,C   7,H  17)          149.9983         0.383041   
    282. A(H  12,C   7,H  16)           55.6211         0.389550   
    283. A(H   9,C   7,H  16)          134.5433         0.353547   
    284. A(C   6,C   7,H  16)          150.0009         0.324317   
    285. A(C   5,C   7,H  16)           90.0038         0.629445   
    286. A(C   3,C   7,H  16)          120.0017         0.383041   
    287. A(C   6,C   7,H   9)           15.4577         0.230152   
    288. A(C   5,C   7,H   9)           44.5395         0.413179   
    289. A(C   3,C   7,H   9)           14.5416         0.265377   
    290. A(C   5,C   7,C   6)           59.9972         0.377360   
    291. A(C   3,C   7,C   6)           29.9993         0.245889   
    292. A(H   9,C   7,H  12)           78.9222         0.269281   
    293. A(C   6,C   7,H  12)           94.3799         0.249361   
    294. A(C   5,C   7,H  12)           34.3827         0.457298   
    295. A(C   3,C   7,H  12)           64.3806         0.289381   
    296. A(C   3,C   7,C   5)           29.9979         0.449322   
    297. A(H  17,C   7,H  18)           90.0000         0.530031   
    298. A(H  12,C   7,H  18)          124.3789         0.389550   
    299. A(H   9,C   7,H  18)           45.4567         0.353547   
    300. A(C   6,C   7,H  18)           29.9991         0.324317   
    301. A(C   5,C   7,H  18)           89.9962         0.629445   
    302. A(C   3,C   7,H  18)           59.9983         0.383041   
    303. A(O   0,C   8,C   3)          150.0021         0.437582   
    304. A(O   1,C   8,N   2)          150.0007         0.426205   
    305. A(O   0,C   8,N   2)           90.0014         0.426186   
    306. A(O   0,C   8,O   1)          119.9979         0.708747   
    307. A(C   4,C   8,C   6)           60.0015         0.377402   
    308. A(C   3,C   8,C   6)           30.0007         0.245913   
    309. A(N   2,C   8,C   6)           90.0015         0.240783   
    310. A(O   1,C   8,C   6)           59.9993         0.367977   
    311. A(C   6,C   8,H  21)          157.7116         0.210423   
    312. A(C   4,C   8,H  21)          142.2870         0.367869   
    313. A(C   3,C   8,H  21)          172.2877         0.240727   
    314. A(N   2,C   8,H  21)          112.2870         0.235766   
    315. A(O   1,C   8,H  21)           97.7123         0.358756   
    316. A(O   0,C   8,H  21)           22.2856         0.358741   
    317. A(C   3,C   8,C   4)           30.0007         0.449378   
    318. A(N   2,C   8,C   4)           30.0000         0.437596   
    319. A(O   1,C   8,C   4)          120.0007         0.729718   
    320. A(O   0,C   8,C   4)          120.0014         0.729684   
    321. A(N   2,C   8,C   3)           60.0007         0.278664   
    322. A(O   1,C   8,C   3)           90.0000         0.437601   
    323. A(C   6,H   9,C   7)          142.4338         0.303115   
    324. A(C   5,H   9,C   7)           53.3527         0.303128   
    325. A(C   3,H   9,C   7)          135.4614         0.353528   
    326. A(C   5,H   9,C   6)          164.2134         0.377925   
    327. A(C   7,H   9,H  13)           97.6825         0.225709   
    328. A(C   6,H   9,H  13)           44.7514         0.273462   
    329. A(C   5,H   9,H  13)          151.0352         0.273473   
    330. A(C   3,H   9,C   6)           82.1048         0.445930   
    331. A(C   3,H   9,H  13)          126.8562         0.316893   
    332. A(C   3,H   9,C   5)           82.1086         0.445952   
    333. A(C   3,H  10,C   4)           82.1101         0.445966   
    334. A(N   2,H  10,C   4)           82.1146         0.433122   
    335. A(N   2,H  10,C   3)          164.2247         0.367529   
    336. A(C   5,H  10,H  11)           26.2369         0.212880   
    337. A(C   4,H  10,H  11)          161.6937         0.295522   
    338. A(C   3,H  10,H  11)           79.5836         0.256157   
    339. A(N   2,H  10,H  11)          116.1917         0.250142   
    340. A(C   4,H  10,C   5)          135.4567         0.353547   
    341. A(C   3,H  10,C   5)           53.3467         0.303122   
    342. A(N   2,H  10,C   5)          142.4287         0.295417   
    343. A(H  10,H  11,H  12)          168.3047         0.187035   
    344. A(C   5,H  11,H  12)           49.9992         0.298359   
    345. A(C   4,H  11,H  12)          160.3976         0.197043   
    346. A(C   3,H  11,H  12)          115.6194         0.231670   
    347. A(C   5,H  11,H  10)          118.3055         0.295526   
    348. A(C   4,H  11,H  10)            7.9070         0.195581   
    349. A(C   3,H  11,H  10)           52.6853         0.229739   
    350. A(C   4,H  11,C   5)          110.3985         0.316610   
    351. A(C   3,H  11,C   5)           65.6202         0.389556   
    352. A(C   3,H  11,C   4)           44.7782         0.244107   
    353. A(C   7,H  12,H  11)          115.6194         0.231670   
    354. A(C   5,H  12,H  11)           49.9921         0.298348   
    355. A(C   5,H  12,C   7)           65.6273         0.389540   
    356. A(C   6,H  13,H   9)           83.1409         0.316904   
    357. A(C   3,H  13,H   9)           24.9398         0.232469   
    358. A(C   3,H  13,C   6)           58.2011         0.366621   
    359. A(C   3,H  15,C   6)           58.2011         0.366621   
    360. A(O   1,H  15,C   3)          121.7989         0.266772   
    361. A(C   5,H  16,C   7)           58.2013         0.366611   
    362. A(C   5,H  18,C   7)           58.2068         0.366627   
    363. A(N   2,H  19,C   4)           37.7122         0.308372   
    364. A(N   2,H  20,C   4)           37.7122         0.308372   
    365. A(O   0,H  21,C   8)           37.7140         0.308363   
    366. D(C   8,O   1,O   0,C   4)      0.0000         0.010000   
    367. D(C   4,O   1,O   0,H  21)    180.0000         0.010000   
    368. D(C   4,O   1,O   0,C   8)      0.0000         0.010000   
    369. D(C   5,C   3,N   2,C   4)    180.0000         0.010000   
    370. D(C   4,C   3,N   2,C   8)      0.0000         0.010000   
    371. D(C   4,C   3,N   2,H  10)    180.0000         0.010000   
    372. D(O   0,C   4,O   1,C   6)    180.0000         0.010000   
    373. D(O   1,C   4,C   3,N   2)    180.0000         1.635223   
    374. D(O   1,C   4,N   2,C   3)    180.0000         1.299484   
    375. D(N   2,C   4,O   1,O   0)      0.0000         0.010000   
    376. D(N   2,C   4,O   0,O   1)    180.0000         0.010000   
    377. D(O   1,C   4,O   0,C   8)      0.0000         0.010000   
    378. D(O   0,C   4,N   2,C   8)      0.0000         1.299484   
    379. D(O   0,C   4,C   3,C   5)    180.0000         1.635223   
    380. D(O   0,C   4,O   1,C   8)      0.0000         0.010000   
    381. D(O   1,C   4,O   0,H  21)      0.0000         0.010000   
    382. D(O   0,C   4,N   2,C   3)    180.0000         1.299484   
    383. D(O   0,C   4,C   3,N   2)    180.0000         1.635223   
    384. D(C   7,C   5,O   0,O   1)      0.0000         0.010000   
    385. D(C   3,C   5,C   4,N   2)    180.0000         0.010000   
    386. D(C   6,C   5,C   4,O   1)      0.0000         0.010000   
    387. D(C   3,C   5,O   0,O   1)      0.0000         0.010000   
    388. D(C   4,C   5,C   3,N   2)      0.0000         1.592472   
    389. D(C   3,C   5,C   4,O   1)      0.0000         0.010000   
    390. D(C   4,C   5,C   3,C   6)    180.0000         1.592472   
    391. D(C   6,C   5,C   3,N   2)    180.0000         1.592472   
    392. D(C   3,C   5,O   0,C   8)      0.0000         0.010000   
    393. D(C   3,C   6,O   0,H  21)    180.0000         0.010000   
    394. D(O   1,C   6,C   3,N   2)      0.0000         1.592143   
    395. D(C   7,C   6,O   0,H  21)    180.0000         0.010000   
    396. D(O   1,C   6,C   3,C   4)      0.0000         1.592143   
    397. D(C   3,C   6,C   5,C   4)      0.0000         0.010000   
    398. D(O   1,C   6,C   5,C   4)      0.0000         0.010000   
    399. D(O   1,C   6,C   5,C   3)      0.0000         0.010000   
    400. D(C   3,C   6,C   4,N   2)      0.0000         0.010000   
    401. D(O   1,C   6,C   4,C   3)    180.0000         0.010000   
    402. D(O   1,C   6,C   4,N   2)    180.0000         0.010000   
    403. D(C   4,C   6,C   3,N   2)      0.0000         1.592143   
    404. D(C   3,C   7,C   6,C   4)      0.0000         0.010000   
    405. D(C   6,C   7,C   5,C   3)      0.0000         1.457461   
    406. D(C   5,C   7,C   6,O   1)      0.0000         0.010000   
    407. D(C   3,C   7,C   5,C   6)      0.0000         1.457461   
    408. D(C   3,C   7,C   5,C   4)      0.0000         1.457461   
    409. D(C   3,C   7,C   6,O   1)      0.0000         0.010000   
    410. D(C   5,C   7,C   3,C   4)      0.0000         0.010000   
    411. D(C   5,C   7,C   3,N   2)      0.0000         0.010000   
    412. D(C   6,C   7,C   3,N   2)    180.0000         0.010000   
    413. D(O   1,C   8,C   4,O   0)    180.0000         1.458645   
    414. D(O   0,C   8,C   4,N   2)      0.0000         1.458645   
    415. D(O   0,C   8,C   4,O   1)    180.0000         1.458645   
    416. D(O   0,C   8,C   3,C   4)      0.0000         0.010000   
    417. D(O   0,C   8,C   3,N   2)      0.0000         0.010000   
    418. D(O   1,C   8,N   2,C   3)      0.0000         0.010000   
    419. D(O   1,C   8,C   3,N   2)    180.0000         0.010000   
    420. D(O   0,C   8,N   2,C   3)    180.0000         0.010000   
    421. D(O   0,C   8,O   1,C   6)    180.0000         1.115438   
    422. D(N   2,C   8,O   1,O   0)    180.0000         1.115438   
    423. D(O   0,C   8,O   1,C   4)    180.0000         1.115438   
    424. D(O   0,C   8,N   2,C   4)    180.0000         0.010000   
    425. D(N   2,C   8,O   0,O   1)    180.0000         1.065112   
    426. D(N   2,C   8,C   6,O   1)    180.0000         0.010000   
    427. D(O   1,C   8,O   0,H  21)      0.0000         1.065112   
    428. D(O   1,C   8,O   0,C   4)    180.0000         1.065112   
    429. D(O   1,C   8,C   7,C   5)    180.0000         0.010000   
    430. D(O   0,C   8,C   7,H   9)    180.0000         0.010000   
    431. D(O   0,C   8,C   7,C   5)      0.0000         0.010000   
    432. D(C   3,C   8,C   6,O   1)    180.0000         0.010000   
    433. D(N   2,C   8,C   6,C   3)      0.0000         0.010000   
    434. D(C   5,H   9,C   7,C   3)      0.0000         0.053459   
    435. D(C   3,H   9,C   7,C   6)    180.0000         0.053459   
    436. D(C   3,H   9,C   7,C   5)      0.0000         0.053459   
    437. D(C   5,H   9,C   6,O   1)      0.0000         1.562171   
    438. D(C   3,H   9,C   6,O   1)      0.0000         1.562171   
    439. D(C   6,H   9,C   5,C   3)      0.0000         1.563310   
    440. D(C   3,H   9,C   5,C   7)    180.0000         1.563310   
    441. D(C   3,H   9,C   5,C   6)      0.0000         1.563310   
    442. D(H  13,H   9,C   4,O   0)      0.0000         0.010000   
    443. D(C   3,H   9,C   6,C   5)      0.0000         1.562171   
    444. D(C   7,H   9,C   4,O   1)    180.0000         0.010000   
    445. D(C   7,H   9,C   4,O   0)    180.0000         0.010000   
    446. D(C   6,H   9,C   3,N   2)    180.0000        25.181235   
    447. D(C   5,H   9,C   3,C   6)    180.0000        25.181235   
    448. D(C   5,H   9,C   3,N   2)      0.0000        25.181235   
    449. D(H  11,H  10,C   8,O   0)    180.0000         0.010000   
    450. D(C   5,H  10,C   8,C   6)      0.0000         0.010000   
    451. D(C   5,H  10,C   8,O   0)    180.0000         0.010000   
    452. D(N   2,H  10,C   5,C   4)    180.0000         0.059988   
    453. D(N   2,H  10,C   5,C   3)    180.0000         0.059988   
    454. D(C   3,H  10,C   4,O   0)    180.0000        26.093289   
    455. D(N   2,H  10,C   4,O   1)    180.0000        26.093289   
    456. D(N   2,H  10,C   4,O   0)      0.0000        26.093289   
    457. D(C   4,H  10,C   3,N   2)      0.0000         1.678176   
    458. D(N   2,H  10,C   3,C   5)    180.0000         1.678176   
    459. D(C   3,H  10,C   5,C   4)      0.0000         0.059988   
    460. D(N   2,H  10,C   3,C   4)      0.0000         1.678176   
    461. D(C   4,H  10,N   2,C   3)      0.0000         1.309631   
    462. D(C   3,H  10,N   2,H  19)      0.0000         1.309631   
    463. D(C   3,H  10,N   2,C   4)      0.0000         1.309631   
    464. D(C   4,H  11,H  10,N   2)    180.0000         1.807084   
    465. D(C   3,H  11,H  10,C   4)      0.0000         1.807084   
    466. D(C   3,H  11,H  10,N   2)    180.0000         1.807084   
    467. D(C   4,H  11,C   5,C   3)      0.0000        24.303482   
    468. D(C   3,H  11,C   5,C   6)      0.0000        24.303482   
    469. D(C   3,H  11,C   5,C   4)      0.0000        24.303482   
    470. D(C   5,H  11,C   4,O   0)    180.0000         0.014278   
    471. D(C   3,H  11,C   4,O   1)      0.0000         0.014278   
    472. D(C   3,H  11,C   4,O   0)    180.0000         0.014278   
    473. D(C   5,H  11,C   3,N   2)    180.0000         0.228775   
    474. D(C   4,H  11,C   3,C   5)    180.0000         0.228775   
    475. D(C   4,H  11,C   3,N   2)      0.0000         0.228775   
    476. D(C   5,H  12,H  11,C   4)      0.0000         1.785818   
    477. D(C   5,H  12,H  11,C   3)      0.0000         1.785818   
    478. D(H  11,H  12,C   7,C   3)      0.0000         0.185068   
    479. D(C   5,H  12,C   7,C   6)      0.0000         0.185068   
    480. D(C   5,H  12,C   7,C   3)      0.0000         0.185068   
    481. D(H  11,H  12,C   5,C   3)      0.0000        22.382882   
    482. D(C   7,H  12,C   5,C   4)    180.0000        22.382882   
    483. D(C   7,H  12,H  11,C   3)      0.0000         1.785818   
    484. D(C   7,H  12,C   5,C   3)    180.0000        22.382882   
    485. D(C   6,H  13,C   3,C   4)      0.0000         0.091332   
    486. D(H   9,H  13,N   2,C   4)    180.0000         0.010000   
    487. D(C   6,H  13,N   2,C   8)      0.0000         0.010000   
    488. D(C   6,H  13,N   2,C   4)      0.0000         0.010000   
    489. D(H   9,H  13,O   1,O   0)      0.0000         0.010000   
    490. D(C   3,H  13,O   1,C   4)      0.0000         0.010000   
    491. D(C   6,H  13,C   3,C   5)    180.0000         0.091332   
    492. D(C   3,H  13,O   1,O   0)      0.0000         0.010000   
    493. D(C   6,H  13,H   9,C   3)      0.0000         5.353551   
    494. D(C   3,H  13,H   9,C   7)    180.0000         5.353551   
    495. D(C   3,H  13,H   9,C   5)    180.0000         5.353551   
    496. D(H   9,H  13,C   3,C   4)    180.0000         0.091332   
    497. D(C   6,H  15,C   3,N   2)    180.0000         0.091332   
    498. D(O   1,H  15,C   3,C   4)      0.0000         0.091332   
    499. D(O   1,H  15,C   3,N   2)      0.0000         0.091332   
    500. D(C   3,H  15,O   1,C   4)      0.0000         0.119419   
    501. D(C   3,H  15,O   1,O   0)      0.0000         0.119419   
    502. D(C   5,H  16,C   7,C   6)      0.0000        19.283318   
    503. D(C   5,H  16,C   7,C   3)      0.0000        19.283318   
    504. D(C   7,H  16,C   5,C   6)      0.0000         0.083723   
    505. D(C   7,H  16,C   5,C   3)      0.0000         0.083723   
    506. D(C   7,H  16,C   4,N   2)    180.0000         0.010000   
    507. D(C   7,H  16,C   4,O   1)      0.0000         0.010000   
    508. D(C   7,H  16,O   0,C   8)      0.0000         0.010000   
    509. D(C   7,H  16,O   0,O   1)      0.0000         0.010000   
    510. D(C   5,H  18,C   7,C   6)      0.0000        19.283318   
    511. D(C   5,H  18,C   7,C   3)      0.0000        19.283318   
    512. D(C   7,H  18,C   5,C   4)    180.0000         0.083773   
    513. D(C   7,H  18,C   5,C   3)    180.0000         0.083773   
    514. D(N   2,H  19,C   4,O   1)    180.0000         0.013320   
    515. D(N   2,H  19,C   4,O   0)    180.0000         0.013320   
    516. D(C   4,H  19,N   2,C   8)      0.0000        17.274950   
    517. D(C   4,H  19,N   2,C   3)      0.0000        17.274950   
    518. D(N   2,H  20,C   4,O   1)      0.0000         0.012832   
    519. D(N   2,H  20,C   4,O   0)      0.0000         0.012832   
    520. D(C   4,H  20,N   2,C   8)      0.0000        16.153346   
    521. D(C   4,H  20,N   2,C   3)      0.0000        16.153346   
    522. D(O   0,H  21,C   8,N   2)      0.0000         0.010685   
    523. D(O   0,H  21,C   8,O   1)    180.0000         0.010685   
    524. D(C   8,H  21,O   0,C   4)      0.0000        14.969602   
    525. D(C   8,H  21,O   0,O   1)      0.0000        14.969602   
    -----------------------------------------------------------------

Number of atoms                         .... 22
Number of degrees of freedom            .... 525


         *************************************************************
         *                GEOMETRY OPTIMIZATION CYCLE   1            *
         *************************************************************
---------------------------------
CARTESIAN COORDINATES (ANGSTROEM)
---------------------------------
  O      2.536900   -0.095000    0.000000
  O      3.403000    1.405000    0.000000
  N      4.269000   -1.095000    0.000000
  C      5.135000    0.405000    0.000000
  C      4.269000   -0.095000    0.000000
  C      6.001000   -0.095000    0.000000
  C      5.135000    1.405000    0.000000
  C      6.867100    0.405000    0.000000
  C      3.403000    0.405000    0.000000
  H      5.672000    0.715000    0.000000
  H      4.805900   -0.405000    0.000000
  H      5.602500   -0.569900    0.000000
  H      6.399600   -0.569900    0.000000
  H      5.755000    1.405000    0.000000
  H      5.135000    2.025000    0.000000
  H      4.515000    1.405000    0.000000
  H      7.177100   -0.131900    0.000000
  H      7.404000    0.715000    0.000000
  H      6.557100    0.941900    0.000000
  H      3.732100   -1.405000    0.000000
  H      4.805900   -1.405000    0.000000
  H      2.000000    0.215000    0.000000

----------------------------
CARTESIAN COORDINATES (A.U.)
----------------------------
  NO LB      ZA    FRAG     MASS         X           Y           Z
   0 O     8.0000    0    15.999    4.794046   -0.179524    0.000000
   1 O     8.0000    0    15.999    6.430738    2.655065    0.000000
   2 N     7.0000    0    14.007    8.067241   -2.069250    0.000000
   3 C     6.0000    0    12.011    9.703744    0.765339    0.000000
   4 C     6.0000    0    12.011    8.067241   -0.179524    0.000000
   5 C     6.0000    0    12.011   11.340247   -0.179524    0.000000
   6 C     6.0000    0    12.011    9.703744    2.655065    0.000000
   7 C     6.0000    0    12.011   12.976938    0.765339    0.000000
   8 C     6.0000    0    12.011    6.430738    0.765339    0.000000
   9 H     1.0000    0     1.008   10.718527    1.351154    0.000000
  10 H     1.0000    0     1.008    9.081835   -0.765339    0.000000
  11 H     1.0000    0     1.008   10.587191   -1.076955    0.000000
  12 H     1.0000    0     1.008   12.093491   -1.076955    0.000000
  13 H     1.0000    0     1.008   10.875374    2.655065    0.000000
  14 H     1.0000    0     1.008    9.703744    3.826695    0.000000
  15 H     1.0000    0     1.008    8.532113    2.655065    0.000000
  16 H     1.0000    0     1.008   13.562753   -0.249255    0.000000
  17 H     1.0000    0     1.008   13.991532    1.351154    0.000000
  18 H     1.0000    0     1.008   12.391123    1.779933    0.000000
  19 H     1.0000    0     1.008    7.052647   -2.655065    0.000000
  20 H     1.0000    0     1.008    9.081835   -2.655065    0.000000
  21 H     1.0000    0     1.008    3.779452    0.406291    0.000000

--------------------------------
INTERNAL COORDINATES (ANGSTROEM)
--------------------------------
 O      0   0   0     0.000000000000     0.00000000     0.00000000
 O      1   0   0     1.732088106881     0.00000000     0.00000000
 N      1   2   0     2.000042602046    89.99715841     0.00000000
 C      3   1   2     1.732038105816    89.99997684     0.00000000
 C      4   3   1     0.999977999758    29.99999999     0.00000000
 C      4   3   1     0.999977999758    89.99854445   180.00000000
 C      4   3   1     1.000000000000   150.00072777     0.00000000
 C      6   4   3     1.000064602913   120.00140911   180.00000085
 C      5   4   3     0.999977999758   119.99854444   180.00000121
 H      4   3   1     0.620055642664   149.99630376   180.00000000
 H      5   4   3     0.619969039550    60.00237975     0.00000000
 H      6   4   3     0.619945368561    79.99990757     0.00000000
 H      6   4   3     0.620009653151   160.00862701     0.00000000
 H      7   4   3     0.620000000000    90.00000000   180.00000085
 H      7   4   3     0.620000000000   180.00000000     0.00000000
 H      7   4   3     0.620000000000    90.00000000     0.00000000
 H      8   6   4     0.619969039550    90.00378886   180.00000000
 H      8   6   4     0.619969039550   179.99621114     0.00000000
 H      8   6   4     0.619969039550    89.99621114     0.00000000
 H      3   1   2     0.619969039550    60.00094736   180.00000000
 H      3   1   2     0.619969039550   179.99764341   180.00000085
 H      1   2   3     0.619969039550    90.00048501   180.00000000

---------------------------
INTERNAL COORDINATES (A.U.)
---------------------------
 O      0   0   0     0.000000000000     0.00000000     0.00000000
 O      1   0   0     3.273172161828     0.00000000     0.00000000
 N      1   2   0     3.779532774043    89.99715841     0.00000000
 C      3   1   2     3.273077673509    89.99997684     0.00000000
 C      4   3   1     1.889684559489    29.99999999     0.00000000
 C      4   3   1     1.889684559489    89.99854445   180.00000000
 C      4   3   1     1.889726133921   150.00072777     0.00000000
 C      6   4   3     1.889848215735   120.00140911   180.00000085
 C      5   4   3     1.889684559489   119.99854444   180.00000121
 H      4   3   1     1.171735352428   149.99630376   180.00000000
 H      5   4   3     1.171571696259    60.00237975     0.00000000
 H      6   4   3     1.171526964573    79.99990757     0.00000000
 H      6   4   3     1.171648444842   160.00862701     0.00000000
 H      7   4   3     1.171630203031    90.00000000   180.00000085
 H      7   4   3     1.171630203031   180.00000000     0.00000000
 H      7   4   3     1.171630203031    90.00000000     0.00000000
 H      8   6   4     1.171571696259    90.00378886   180.00000000
 H      8   6   4     1.171571696259   179.99621114     0.00000000
 H      8   6   4     1.171571696259    89.99621114     0.00000000
 H      3   1   2     1.171571696259    60.00094736   180.00000000
 H      3   1   2     1.171571696259   179.99764341   180.00000085
 H      1   2   3     1.171571696259    90.00048501   180.00000000

---------------------
BASIS SET INFORMATION
---------------------
There are 4 groups of distinct atoms

 Group   1 Type O   : 10s4p1d contracted to 3s2p1d pattern {631/31/1}
 Group   2 Type N   : 10s4p1d contracted to 3s2p1d pattern {631/31/1}
 Group   3 Type C   : 10s4p1d contracted to 3s2p1d pattern {631/31/1}
 Group   4 Type H   : 4s1p contracted to 2s1p pattern {31/1}

Atom   0O    basis set group =>   1
Atom   1O    basis set group =>   1
Atom   2N    basis set group =>   2
Atom   3C    basis set group =>   3
Atom   4C    basis set group =>   3
Atom   5C    basis set group =>   3
Atom   6C    basis set group =>   3
Atom   7C    basis set group =>   3
Atom   8C    basis set group =>   3
Atom   9H    basis set group =>   4
Atom  10H    basis set group =>   4
Atom  11H    basis set group =>   4
Atom  12H    basis set group =>   4
Atom  13H    basis set group =>   4
Atom  14H    basis set group =>   4
Atom  15H    basis set group =>   4
Atom  16H    basis set group =>   4
Atom  17H    basis set group =>   4
Atom  18H    basis set group =>   4
Atom  19H    basis set group =>   4
Atom  20H    basis set group =>   4
Atom  21H    basis set group =>   4
---------------------------------
AUXILIARY/J BASIS SET INFORMATION
---------------------------------
There are 4 groups of distinct atoms

 Group   1 Type O   : 12s5p4d2f1g contracted to 6s4p3d1f1g pattern {711111/2111/211/2/1}
 Group   2 Type N   : 12s5p4d2f1g contracted to 6s4p3d1f1g pattern {711111/2111/211/2/1}
 Group   3 Type C   : 12s5p4d2f1g contracted to 6s4p3d1f1g pattern {711111/2111/211/2/1}
 Group   4 Type H   : 5s2p1d contracted to 3s1p1d pattern {311/2/1}

Atom   0O    basis set group =>   1
Atom   1O    basis set group =>   1
Atom   2N    basis set group =>   2
Atom   3C    basis set group =>   3
Atom   4C    basis set group =>   3
Atom   5C    basis set group =>   3
Atom   6C    basis set group =>   3
Atom   7C    basis set group =>   3
Atom   8C    basis set group =>   3
Atom   9H    basis set group =>   4
Atom  10H    basis set group =>   4
Atom  11H    basis set group =>   4
Atom  12H    basis set group =>   4
Atom  13H    basis set group =>   4
Atom  14H    basis set group =>   4
Atom  15H    basis set group =>   4
Atom  16H    basis set group =>   4
Atom  17H    basis set group =>   4
Atom  18H    basis set group =>   4
Atom  19H    basis set group =>   4
Atom  20H    basis set group =>   4
Atom  21H    basis set group =>   4


           ************************************************************
           *        Program running with 2 parallel MPI-processes     *
           *              working on a common directory               *
           ************************************************************
------------------------------------------------------------------------------
                             ORCA STARTUP CALCULATIONS
                           -- RI-GTO INTEGRALS CHOSEN --
------------------------------------------------------------------------------
------------------------------------------------------------------------------
                   ___                                                        
                  /   \      - P O W E R E D   B Y -                         
                 /     \                                                     
                 |  |  |   _    _      __       _____    __    __             
                 |  |  |  | |  | |    /  \     |  _  \  |  |  /  |          
                  \  \/   | |  | |   /    \    | | | |  |  | /  /          
                 / \  \   | |__| |  /  /\  \   | |_| |  |  |/  /          
                |  |  |   |  __  | /  /__\  \  |    /   |      \           
                |  |  |   | |  | | |   __   |  |    \   |  |\   \          
                \     /   | |  | | |  |  |  |  | |\  \  |  | \   \       
                 \___/    |_|  |_| |__|  |__|  |_| \__\ |__|  \__/        
                                                                              
                      - O R C A' S   B I G   F R I E N D -                    
                                      &                                       
                       - I N T E G R A L  F E E D E R -                       
                                                                              
 v1 FN, 2020, v2 2021, v3 2022-2024                                           
------------------------------------------------------------------------------


----------------------
SHARK INTEGRAL PACKAGE
----------------------

Number of atoms                             ...     22
Number of basis functions                   ...    191
Number of shells                            ...     93
Maximum angular momentum                    ...      2
Integral batch strategy                     ... SHARK/LIBINT Hybrid
RI-J (if used) integral strategy            ... SPLIT-RIJ (Revised 2003 algorithm where possible)
Printlevel                                  ...      1
Contraction scheme used                     ... SEGMENTED contraction
Prescreening option                         ... SCHWARTZ
   Thresh                                   ... 2.500e-11
   Tcut                                     ... 2.500e-12
   Tpresel                                  ... 2.500e-12 
Coulomb Range Separation                    ... NOT USED
Exchange Range Separation                   ... NOT USED
Multipole approximations                    ... NOT USED
Finite Nucleus Model                        ... NOT USED
CABS basis                                  ... NOT available
Auxiliary Coulomb fitting basis             ... AVAILABLE
   # of basis functions in Aux-J            ...    584
   # of shells in Aux-J                     ...    200
   Maximum angular momentum in Aux-J        ...      4
Auxiliary J/K fitting basis                 ... NOT available
Auxiliary Correlation fitting basis         ... NOT available
Auxiliary 'external' fitting basis          ... NOT available

Checking pre-screening integrals            ... done (  0.0 sec) Dimension = 93
   => SHARK Basis and OBASIS are compatible. Storing Pre-screening
Shell pair information
Shell pair cut-off parameter TPreSel        ...   2.5e-12
Total number of shell pairs                 ...      4371
Shell pairs after pre-screening             ...      4264
Total number of primitive shell pairs       ...     20328
Primitive shell pairs kept                  ...     15241
          la=0 lb=0:   1394 shell pairs
          la=1 lb=0:   1594 shell pairs
          la=1 lb=1:    485 shell pairs
          la=2 lb=0:    470 shell pairs
          la=2 lb=1:    276 shell pairs
          la=2 lb=2:     45 shell pairs

Checking whether 4 symmetric matrices of dimension 191 fit in memory
:Max Core in MB      =   3000.00
 MB in use           =      9.38
 MB left             =   2990.62
 MB needed           =      0.56
 Data fit in memory  = YES
Calculating RI/J V-Matrix + Cholesky decomp.... done (  0.0 sec)
Calculating Nuclear repulsion               ... done (  0.0 sec) ENN=    732.616761887064 Eh

Diagonalization of the overlap matrix:
Smallest eigenvalue                        ... 1.508e-05
Time for diagonalization                   ...    0.004 sec
Threshold for overlap eigenvalues          ... 1.000e-07
Number of eigenvalues below threshold      ... 0
Time for construction of square roots      ...    0.001 sec
Total time needed                          ...    0.007 sec

-------------------
DFT GRID GENERATION
-------------------

General Integration Accuracy     IntAcc      ... 4.388
Radial Grid Type                 RadialGrid  ... OptM3 with GC (2021)
Angular Grid (max. ang.)         AngularGrid ... 4 (Lebedev-302)
Angular grid pruning method      GridPruning ... 4 (adaptive)
Weight generation scheme         WeightScheme... mBecke (2022)
Basis function cutoff            BFCut       ... 1.0000e-11
Integration weight cutoff        WCut        ... 1.0000e-14
Partially contracted basis set               ... off
Rotationally invariant grid construction     ... off
Angular grids for H and He will be reduced by one unit

Total number of grid points                  ...    90222
Total number of batches                      ...     1420
Average number of points per batch           ...       63
Average number of grid points per atom       ...     4101

--------------------
COSX GRID GENERATION
--------------------

GRIDX 1
-------
General Integration Accuracy     IntAcc      ... 3.816
Radial Grid Type                 RadialGrid  ... OptM3 with GC (2021)
Angular Grid (max. ang.)         AngularGrid ... 1 (Lebedev-50)
Angular grid pruning method      GridPruning ... 4 (adaptive)
Weight generation scheme         WeightScheme... mBecke (2022)
Basis function cutoff            BFCut       ... 1.0000e-11
Integration weight cutoff        WCut        ... 1.0000e-14
Partially contracted basis set               ... on
Rotationally invariant grid construction     ... off
Angular grids for H and He will be reduced by one unit

Total number of grid points                  ...    11606
Total number of batches                      ...      102
Average number of points per batch           ...      113
Average number of grid points per atom       ...      528
UseSFitting                                  ... on

GRIDX 2
-------
General Integration Accuracy     IntAcc      ... 4.020
Radial Grid Type                 RadialGrid  ... OptM3 with GC (2021)
Angular Grid (max. ang.)         AngularGrid ... 2 (Lebedev-110)
Angular grid pruning method      GridPruning ... 4 (adaptive)
Weight generation scheme         WeightScheme... mBecke (2022)
Basis function cutoff            BFCut       ... 1.0000e-11
Integration weight cutoff        WCut        ... 1.0000e-14
Partially contracted basis set               ... on
Rotationally invariant grid construction     ... off
Angular grids for H and He will be reduced by one unit

Total number of grid points                  ...    24102
Total number of batches                      ...      201
Average number of points per batch           ...      119
Average number of grid points per atom       ...     1096
UseSFitting                                  ... on

GRIDX 3
-------
General Integration Accuracy     IntAcc      ... 4.338
Radial Grid Type                 RadialGrid  ... OptM3 with GC (2021)
Angular Grid (max. ang.)         AngularGrid ... 3 (Lebedev-194)
Angular grid pruning method      GridPruning ... 4 (adaptive)
Weight generation scheme         WeightScheme... mBecke (2022)
Basis function cutoff            BFCut       ... 1.0000e-11
Integration weight cutoff        WCut        ... 1.0000e-14
Partially contracted basis set               ... on
Rotationally invariant grid construction     ... off
Angular grids for H and He will be reduced by one unit

Total number of grid points                  ...    52818
Total number of batches                      ...      422
Average number of points per batch           ...      125
Average number of grid points per atom       ...     2401
UseSFitting                                  ... on
Grids setup in   1.9 sec
Initializing property integral containers    ... done (  0.0 sec)

SHARK setup successfully completed in   2.2 seconds

Maximum memory used throughout the entire STARTUP-calculation: 32.8 MB


           ************************************************************
           *        Program running with 2 parallel MPI-processes     *
           *              working on a common directory               *
           ************************************************************
-------------------------------------------------------------------------------
                                 ORCA GUESS
                   Start orbitals & Density for SCF / CASSCF
-------------------------------------------------------------------------------

------------
SCF SETTINGS
------------
Hamiltonian:
 Density Functional     Method          .... DFT(GTOs)
 Exchange Functional    Exchange        .... B88
   X-Alpha parameter    XAlpha          ....  0.666667
   Becke's b parameter  XBeta           ....  0.004200
 Correlation Functional Correlation     .... LYP
 LDA part of GGA corr.  LDAOpt          .... VWN-5
 Gradients option       PostSCFGGA      .... off
 Hybrid DFT is turned on
   Fraction HF Exchange ScalHFX         ....  0.200000
   Scaling of DF-GGA-X  ScalDFX         ....  0.720000
   Scaling of DF-GGA-C  ScalDFC         ....  0.810000
   Scaling of DF-LDA-C  ScalLDAC        ....  1.000000
   Perturbative correction              ....  0.000000
   NL short-range parameter             ....  4.800000
 RI-approximation to the Coulomb term is turned on
   Number of AuxJ basis functions       .... 584
   RIJ-COSX (HFX calculated with COS-X)).... on


General Settings:
 Integral files         IntName         .... /kaggle/working/Ile-1/Ile_InterFrag
 Hartree-Fock type      HFTyp           .... RHF
 Total Charge           Charge          ....    0
 Multiplicity           Mult            ....    1
 Number of Electrons    NEL             ....   72
 Basis Dimension        Dim             ....  191
 Nuclear Repulsion      ENuc            ....    732.6167618871 Eh

Convergence Acceleration:
 AO-DIIS                CNVDIIS         .... on
   Start iteration      DIISMaxIt       ....    12
   Startup error        DIISStart       ....  0.200000
   # of expansion vecs  DIISMaxEq       ....     5
   Bias factor          DIISBfac        ....   1.050
   Max. coefficient     DIISMaxC        ....  10.000
 MO-DIIS                CNVKDIIS        .... off
 Trust-Rad. Augm. Hess. CNVTRAH         .... auto
   Auto Start mean grad. ratio tolernc. ....  1.125000
   Auto Start start iteration           ....    50
   Auto Start num. interpolation iter.  ....    10
   Max. Number of Micro iterations      ....    24
   Max. Number of Macro iterations      .... Maxiter - #DIIS iter
   Number of Davidson start vectors     ....     2
   Converg. threshold    (grad. norm)   ....   1.000e-05
   Grad. Scal. Fac. for Micro threshold ....   0.100
   Minimum threshold for Micro iter.    ....   1.000e-02
   NR start threshold (gradient norm)   ....   1.000e-04
   Initial trust radius                 ....   0.400
   Minimum AH scaling param. (alpha)    ....   1.000
   Maximum AH scaling param. (alpha)    .... 1000.000
   Quad. conv. algorithm                .... NR
   White noise on init. David. guess    .... on
   Maximum white noise                  ....   0.010
   Pseudo random numbers                .... off
   Inactive MOs                         .... canonical
   Orbital update algorithm             .... Taylor
   Preconditioner                       .... Diag
   Full preconditioner red. dimension   ....   250
 SOSCF                 CNVSOSCF           .... on
   Start iteration     SOSCFMaxIt         ....   150
   Startup grad/error  SOSCFStart         ....  0.000330
   Hessian update      SOSCFHessUp        .... L-BFGS
   Autom. constraints  SOSCFAutoConstrain .... off
 Level Shifting         CNVShift        .... on
   Level shift para.    LevelShift      ....    0.2500
   Turn off err/grad.   ShiftErr        ....    0.0010
 Zerner damping         CNVZerner       .... off
 Static damping         CNVDamp         .... on
   Fraction old density DampFac         ....    0.7000
   Max. Damping (<1)    DampMax         ....    0.9800
   Min. Damping (>=0)   DampMin         ....    0.0000
   Turn off err/grad.   DampErr         ....    0.1000

SCF Procedure:
 Maximum # iterations   MaxIter         ....  1000
 SCF integral mode      SCFMode         .... Direct
   Integral package                     .... SHARK and LIBINT hybrid scheme
 Reset frequency        DirectResetFreq ....    20
 Integral Threshold     Thresh          ....  2.500e-11 Eh
 Primitive CutOff       TCut            ....  2.500e-12 Eh

Convergence Tolerance:
 Convergence Check Mode ConvCheckMode   .... Total+1el-Energy
 Convergence forced     ConvForced      .... 0
 Energy Change          TolE            ....  1.000e-08 Eh
 1-El. energy change                    ....  1.000e-05 Eh
 Orbital Gradient       TolG            ....  1.000e-05
 Orbital Rotation angle TolX            ....  1.000e-05
 DIIS Error             TolErr          ....  5.000e-07

------------------------------
INITIAL GUESS: MODEL POTENTIAL
------------------------------
Loading Hartree-Fock densities                     ... done
Calculating cut-offs                               ... done
Initializing the effective Hamiltonian             ... done
Setting up the integral package (SHARK)            ... done
Starting the Coulomb interaction                   ... done (   0.2 sec)
Making the grid                                    ... done (   0.3 sec)
Mapping shells                                     ... done
Starting the XC term evaluation                    ... done (   0.2 sec)
  promolecular density results
     # of electrons  =     72.006283373
     EX              =    -61.655417738
     EC              =     -2.673021007
     EX+EC           =    -64.328438745
Transforming the Hamiltonian                       ... done (   0.0 sec)
Diagonalizing the Hamiltonian                      ... done (   0.0 sec)
Back transforming the eigenvectors                 ... done (   0.0 sec)
Now organizing SCF variables                       ... done
                      ------------------
                      INITIAL GUESS DONE (   0.7 sec)
                      ------------------
             **** ENERGY FILE WAS UPDATED (/kaggle/working/Ile-1/Ile_InterFrag.en.tmp) ****
Finished Guess after   1.0 sec
Maximum memory used throughout the entire GUESS-calculation: 13.5 MB


           ************************************************************
           *        Program running with 2 parallel MPI-processes     *
           *              working on a common directory               *
           ************************************************************

-------------------------------------------------------------------------------------------
                                      ORCA LEAN-SCF
                              memory conserving SCF solver
-------------------------------------------------------------------------------------------

--------------------
CPCM SOLVATION MODEL
--------------------
CPCM parameters:
  Epsilon                                         ...      78.3550
  Refrac                                          ...       1.3328
  Rsolv                                           ...       1.3000
  Surface type                                    ... GAUSSIAN VDW
  Discretization scheme                           ... Constant charge density
    Threshold for H atoms                         ...       5.0000 (charges/Ang^2)
    Threshold for non-H atoms                     ...       5.0000 (charges/Ang^2)
  Epsilon function type                           ...         CPCM
Solvent:                                          ... WATER
SMD-CDS solvent descriptors:
  Soln                                            ...       1.3328
  Soln25                                          ...       1.3323
  Sola                                            ...       0.0000
[...]
Number of atoms                         ....  22
Number of internal coordinates          .... 128
Current Energy                          ....  -441.380805996 Eh
Current gradient norm                   ....     0.013507160 Eh/bohr
Maximum allowed component of the step   ....  0.300
Current trust radius                    ....  0.700
Updating the Hessian (BFGS)             .... done
Forming the augmented Hessian           .... done
Diagonalizing the augmented Hessian     .... done
Last element of RFO vector              ....  0.922051291
Lowest eigenvalues of augmented Hessian:
 -0.000748632  0.001331826  0.001451603  0.003364773  0.004506473
Length of the computed step             ....  0.419789788
The final length of the internal step   ....  0.419789788
Converting the step to Cartesian space:
 Initial RMS(Int)=    0.0371045257
Transforming coordinates:
 Iter   0:  RMS(Cart)=    0.0894940044 RMS(Int)=    0.0288153827
 Iter   5:  RMS(Cart)=    0.0000001245 RMS(Int)=    0.0000000868
done
Storing new coordinates                 .... done
The predicted energy change is          ....    -0.000440279
Previously predicted energy change      ....    -0.000408913
Actually observed energy change         ....    -0.000531742
Ratio of predicted to observed change   ....     1.300380215
New trust radius                        ....     0.700000000

                                .--------------------.
          ----------------------|Geometry convergence|-------------------------
          Item                value                   Tolerance       Converged
          ---------------------------------------------------------------------
          Energy change      -0.0005317425            0.0000050000      NO
          RMS gradient        0.0006431223            0.0001000000      NO
          MAX gradient        0.0020876433            0.0003000000      NO
          RMS step            0.0371045257            0.0020000000      NO
          MAX step            0.1230858176            0.0040000000      NO
          -------------------------------------------------------------------------
          ........................................................
          Max(Bonds)      0.0528      Max(Angles)    5.04
          Max(Dihed)        7.05      Max(Improp)    0.00
          ---------------------------------------------------------------------

The optimization has not yet converged - more geometry cycles are needed


    ---------------------------------------------------------------------------
                         Redundant Internal Coordinates
                            (Angstroem and degrees)

        Definition                    Value    dE/dq     Step     New-Value
    ----------------------------------------------------------------------------
     1. B(C   4,N   2)                1.4353  0.000981  0.0006    1.4360   
     2. B(C   4,C   3)                1.4742  0.000115  0.0012    1.4754   
     3. B(C   5,C   3)                1.3543  0.001071  0.0003    1.3546   
     4. B(C   6,C   3)                1.5112  0.001449  0.0056    1.5168   
     5. B(C   8,C   4)                1.3550 -0.000248  0.0001    1.3551   
     6. B(C   8,O   1)                1.3735  0.000351 -0.0013    1.3722   
     7. B(C   8,O   0)                1.3698 -0.001396 -0.0006    1.3692   
     8. B(H   9,C   6)                1.0852 -0.001997  0.0094    1.0946   
     9. B(H   9,C   3)                2.1357 -0.001736  0.0102    2.1458   
    10. B(H   9,C   7)                2.5604 -0.000937  0.0494    2.6098   
    11. B(H  11,H  10)                0.7442  0.000169 -0.0012    0.7430   
    12. B(H  11,C   5)                2.8725  0.000644  0.0049    2.8774   
    13. B(H  12,C   5)                1.0867  0.000040 -0.0011    1.0856   
    14. B(H  13,C   6)                1.0942 -0.000155 -0.0017    1.0925   
    15. B(H  14,C   6)                1.0997 -0.000107 -0.0006    1.0991   
    16. B(H  15,O   1)                0.9678  0.000273  0.0000    0.9678   
    17. B(H  16,C   7)                1.0967  0.000153 -0.0006    1.0961   
    18. B(H  17,C   7)                1.0992 -0.000040 -0.0001    1.0991   
    19. B(H  18,H  13)                3.5187 -0.001091  0.0272    3.5459   
    20. B(H  18,H   9)                1.8773 -0.000734  0.0528    1.9302   
    21. B(H  18,C   7)                1.0959  0.000974 -0.0006    1.0953   
    22. B(H  19,O   0)                2.2330  0.000253 -0.0126    2.2205   
    23. B(H  19,N   2)                1.0158  0.000602 -0.0003    1.0155   
    24. B(H  20,N   2)                1.0188  0.000447 -0.0001    1.0187   
    25. B(H  21,O   0)                0.9705 -0.000204 -0.0002    0.9703   
    26. A(C   8,O   0,H  21)          108.69  0.002088    0.14    108.83   
    27. A(C   8,O   1,H  15)          110.22 -0.000378    0.15    110.37   
    28. A(C   4,N   2,H  19)          110.30  0.000235   -0.21    110.09   
    29. A(C   4,N   2,H  20)          109.23 -0.000684   -0.12    109.11   
    30. A(H  19,N   2,H  20)          108.28  0.000518    0.11    108.39   
    31. A(C   6,C   3,H   9)           28.60 -0.000081    0.01     28.61   
    32. A(C   5,C   3,C   6)          120.59  0.000532    0.75    121.35   
    33. A(C   4,C   3,C   6)          119.72  0.000053   -0.27    119.45   
    34. A(C   4,C   3,C   5)          119.59 -0.000614   -0.23    119.36   
    35. A(C   5,C   3,H   9)           92.96  0.000526    0.70     93.66   
    36. A(C   4,C   3,H   9)          145.68  0.000012   -0.66    145.02   
    37. A(C   3,C   4,C   8)          125.37 -0.000686    0.18    125.55   
    38. A(N   2,C   4,C   3)          116.28  0.000343    0.12    116.40   
    39. A(N   2,C   4,C   8)          118.21  0.000337   -0.35    117.87   
    40. A(C   3,C   5,H  11)           95.67  0.001007   -0.15     95.52   
    41. A(H  11,C   5,H  12)           67.33 -0.000361    5.04     72.37   
    42. A(C   3,C   5,H  12)          117.46 -0.000522   -0.12    117.34   
    43. A(C   3,C   6,H   9)          109.59 -0.001112    0.18    109.77   
    44. A(H   9,C   6,H  14)          105.82  0.000496    1.31    107.13   
    45. A(C   3,C   6,H  14)          111.42 -0.000189   -0.83    110.59   
    46. A(C   3,C   6,H  13)          114.94  0.001676   -2.08    112.86   
    47. A(H  13,C   6,H  14)          107.05 -0.001348    1.58    108.63   
    48. A(H   9,C   6,H  13)          107.56  0.000426   -0.45    107.10   
    49. A(H  17,C   7,H  18)          107.51  0.000447   -0.92    106.59   
    50. A(H  16,C   7,H  17)          106.75  0.000541   -0.05    106.70   
    51. A(H   9,C   7,H  17)          112.94  0.000158   -0.52    112.42   
    52. A(H   9,C   7,H  16)          135.22 -0.000539   -0.16    135.06   
    53. A(H   9,C   7,H  18)           41.05  0.000304    0.30     41.34   
    54. A(O   0,C   8,O   1)          110.59  0.000319   -0.18    110.41   
    55. A(O   1,C   8,C   4)          129.49  0.000268    0.28    129.77   
    56. A(O   0,C   8,C   4)          119.72 -0.000580   -0.03    119.69   
    57. A(C   3,H   9,H  18)           87.34 -0.000899   -1.23     86.11   
    58. A(C   3,H   9,C   6)           41.81  0.001192   -0.19     41.62   
    59. A(C   7,H   9,H  18)           22.54  0.000426   -0.56     21.98   
    60. A(C   6,H   9,C   7)          104.98 -0.000076   -1.27    103.71   
    61. A(C   3,H   9,C   7)           65.21 -0.001315   -0.59     64.62   
    62. A(C   6,H   9,H  18)          127.51  0.000350   -2.63    124.88   
    63. A(C   5,H  11,H  10)          175.34  0.000037   -0.55    174.79   
    64. A(C   6,H  13,H  18)           33.85 -0.000662    0.17     34.01   
    65. A(H   9,H  18,H  13)           14.09 -0.000464    0.77     14.85   
    66. A(C   7,H  18,H  13)          105.80 -0.000326   -0.70    105.11   
    67. A(C   7,H  18,H   9)          116.41 -0.000731    0.26    116.67   
    68. D(N   2,C   4,C   3,C   5)    -14.34  0.000221    2.29    -12.05   
    69. D(N   2,C   4,C   3,C   6)    162.14 -0.000296    1.16    163.30   
    70. D(C   8,C   4,N   2,H  20)    132.97  0.000350   -0.12    132.86   
    71. D(C   3,C   4,N   2,H  19)   -170.00 -0.000121    0.54   -169.46   
    72. D(C   8,C   4,C   3,C   6)    -22.27 -0.000369    0.21    -22.06   
    73. D(N   2,C   4,C   3,H   9)    145.26 -0.000158   -6.84    138.42   
    74. D(C   8,C   4,C   3,C   5)    161.25  0.000148    1.34    162.59   
    75. D(C   3,C   4,N   2,H  20)    -51.11  0.000234   -1.00    -52.10   
    76. D(C   8,C   4,N   2,H  19)     14.08 -0.000005    1.42     15.50   
    77. D(H  12,C   5,C   3,C   6)    179.05  0.000383    0.60    179.65   
    78. D(H  11,C   5,C   3,H   9)    119.47 -0.000124   -3.90    115.57   
    79. D(H  12,C   5,C   3,C   4)     -4.51 -0.000157   -0.79     -5.30   
    80. D(H  11,C   5,C   3,C   6)    111.68  0.000209   -5.02    106.66   
    81. D(H  11,C   5,C   3,C   4)    -71.87 -0.000331   -6.41    -78.29   
    82. D(H  14,C   6,C   3,C   4)     83.22  0.000075    0.95     84.17   
    83. D(H  13,C   6,C   3,H   9)    121.24  0.000881   -1.31    119.93   
    84. D(H  13,C   6,C   3,C   5)    137.67  0.000200    0.29    137.96   
    85. D(H  13,C   6,C   3,C   4)    -38.77  0.000764    1.57    -37.20   
    86. D(H   9,C   6,C   3,C   5)     16.43 -0.000681    1.59     18.03   
    87. D(H   9,C   6,C   3,C   4)   -160.01 -0.000117    2.88   -157.13   
    88. D(O   1,C   8,C   4,C   3)     -2.05  0.000167    0.78     -1.27   
    89. D(O   0,C   8,C   4,C   3)   -176.42  0.000053   -0.17   -176.59   
    90. D(O   0,C   8,C   4,N   2)     -0.91 -0.000022   -1.12     -2.03   
    91. D(C   4,C   8,O   1,H  15)     21.58  0.000282   -4.69     16.89   
    92. D(C   4,C   8,O   0,H  21)   -155.32  0.000054   -2.13   -157.45   
    93. D(O   1,C   8,C   4,N   2)    173.46  0.000091   -0.17    173.29   
    94. D(O   1,C   8,O   0,H  21)     29.32 -0.000048   -2.91     26.41   
    95. D(O   0,C   8,O   1,H  15)   -163.65  0.000346   -3.78   -167.43   
    96. D(H  18,H   9,C   3,C   4)   -163.13  0.000253   -3.57   -166.71   
    97. D(C   6,H   9,C   3,C   4)     31.78 -0.000208   -1.80     29.98   
    98. D(C   6,H   9,C   3,C   5)   -165.89 -0.000653    1.52   -164.36   
    99. D(C   6,H   9,C   7,H  18)   -178.45 -0.000013   -1.00   -179.46   
   100. D(C   6,H   9,C   7,H  17)    -87.80  0.000636   -0.66    -88.46   
   101. D(C   6,H   9,C   7,H  16)    121.64 -0.000005   -1.83    119.80   
   102. D(C   3,H   9,C   7,H  17)   -101.04  0.000557   -0.65   -101.69   
   103. D(C   3,H   9,C   7,H  16)    108.40 -0.000085   -0.53    107.88   
   104. D(C   7,H   9,C   6,C   3)    -18.16  0.000526   -0.42    -18.59   
   105. D(H  18,H   9,C   6,H  14)    101.33 -0.000019    4.89    106.23   
   106. D(H  18,H   9,C   6,H  13)   -144.51 -0.001132    7.05   -137.46   
   107. D(H  18,H   9,C   6,C   3)    -18.91  0.000515    4.99    -13.92   
   108. D(C   3,H   9,C   6,H  14)    120.25 -0.000535   -0.10    120.15   
   109. D(C   3,H   9,C   7,H  18)    168.32 -0.000093    0.30    168.62   
   110. D(C   3,H   9,C   6,H  13)   -125.60 -0.001647    2.06   -123.54   
   111. D(C   7,H   9,C   3,C   4)   -167.59  0.000134   -2.84   -170.43   
   112. D(H  18,H   9,C   3,C   6)    165.08  0.000461   -1.77    163.32   
   113. D(H  18,H   9,C   3,C   5)     -0.80 -0.000192   -0.25     -1.05   
   114. D(H  10,H  11,C   5,H  12)    133.99  0.000482    2.29    136.28   
   115. D(H  10,H  11,C   5,C   3)   -108.57 -0.000470    1.79   -106.78   
   116. D(H  18,H  13,C   6,H  14)    139.51 -0.000322    4.55    144.07   
   117. D(H  18,H  13,C   6,H   9)     26.18 -0.000449    1.61     27.79   
   118. D(H  18,H  13,C   6,C   3)    -96.17 -0.000455    2.69    -93.47   
   119. D(H   9,H  18,H  13,C   6)    -87.42 -0.000820    0.50    -86.92   
   120. D(C   7,H  18,H  13,C   6)     53.06 -0.001241    3.32     56.39   
   121. D(H  13,H  18,H   9,C   6)     45.02  0.000218    3.90     48.92   
   122. D(H  13,H  18,H   9,C   3)     32.52  0.000246   -2.08     30.44   
   123. D(C   7,H  18,H   9,C   6)      1.89 -0.000007   -5.24     -3.35   
   124. D(C   7,H  18,H   9,C   3)    -10.61  0.000022    0.87     -9.74   
   125. D(H  13,H  18,H   9,C   7)     43.13  0.000225   -2.95     40.18   
   126. D(H  13,H  18,C   7,H   9)     -9.96  0.000299    0.13     -9.83   
   127. D(H  13,H  18,C   7,H  17)   -115.04  0.000548    0.02   -115.01   
   128. D(H   9,H  18,C   7,H  17)   -105.08  0.000248   -0.10   -105.18   
    ----------------------------------------------------------------------------

Geometry step timings:
Preparation and reading OPT file:      0.000 s ( 0.659 %)
Internal coordinates            :      0.000 s ( 1.442 %)
B/P matrices and projection     :      0.002 s (33.584 %)
Hessian update/contruction      :      0.001 s (12.135 %)
Making the step                 :      0.002 s (29.476 %)
Converting the step to Cartesian:      0.000 s ( 4.986 %)
Storing new data                :      0.000 s ( 1.223 %)
Checking convergence            :      0.000 s ( 1.380 %)
Final printing                  :      0.001 s (15.083 %)
Total time                      :      0.006 s

Time for energy+gradient        :     55.915 s
Time for complete geometry iter :     56.277 s




    ----------------------------------------------------------------------------
                                  WARNING !!!
       The optimization did not converge but reached the maximum number of
       optimization cycles.
       Please check your results very carefully.
    ----------------------------------------------------------------------------



--------------------------------
SUGGESTED CITATIONS FOR THIS RUN
--------------------------------

Below you find a list of papers that are relevant to this ORCA run
We neither can nor want to force you to cite these papers, but we appreciate if you do
You receive ORCA, which is the product of decades of hard work by many enthusiastic individuals, for free
The only thing we kindly ask in return is that you cite our papers,
We deeply appreciate it, if you show your appreciation for ORCA by not just citing the generic ORCA reference.

Please note that relegating all ORCA citations to the supporting information does *not* help us.
SI sections are not indexed - citations you put there will not count into any citation statistics
But we need these citations in order to attract the funding resources that allow us to do what we are doing

Therefore, if you are a happy ORCA user, please consider citing a few of the papers listed below in the main body of your paper

In addition to the list printed below, the program has created the file /kaggle/working/Ile-1/Ile_InterFrag.bibtex that contains the list in bibtex format
You can import this file easily into all common literature databanks and citation aid programs

It goes without saying that in many instances, there are alternative algorithms to achieve similar
results as the ones you have gotten from ORCA. It is, of course, also the case that in some instances
ORCA just re-implements algorithms worked out by others. We are fully aware of that and we are also
fully appreciative of our colleagues work. Hence this citation list should not be read as indicating
that the listed papers, which are focused on our own work, are the only ones worth citing. It simply
meant to make it easier for users to cite ORCA specific papers. It is not a substitute for doing your
own literature research and citing the relevant literature in a scientifically appropriate manner.

List of essential papers. We consider these as the minimum necessary citations

  1. Neese, F.
     Software update: the ORCA program system, version 6.0
     WIRES Comput. Molec. Sci. 2025 15(1), e70019
     doi.org/10.1002/wcms.70019

List of papers to cite with high priority. The work reported in these papers was absolutely
necessary for this run to complete.
Our perspective: the developers of density functionals and basis sets usually get cited in chemistry papers
Good! But without the algorithms to do something with them, the functionals or basis sets would not do anything.
Hence, in our opinion, the algorithm design and method developments papers are equally worthy of getting cited

  1. Neese, F.
     An improvement of the resolution of the identity approximation for the formation of the Coulomb matrix
     J. Comp. Chem. 2003 24(14), 1740-1747
     doi.org/10.1002/jcc.10318
  2. Neese, F.; Wennmohs, F.; Hansen, A.; Becker, U.
     Efficient, approximate and parallel Hartree-Fock and hybrid DFT calculations. A 'chain-of-spheres' algorithm for the Hartree-Fock exchange
     Chem. Phys. 2009 356(1-3), 98-109
     doi.org/10.1016/j.chemphys.2008.10.036
  3. Grimme, S.; Antony, J.; Ehrlich, S.; Krieg, H.
     A consistent and accurate ab initio parametrization of density functional dispersion correction (DFT-D) for the 94 elements H-Pu
     J. Chem. Phys. 2010 132 , 154104
     doi.org/10.1063/1.3382344
  4. Grimme, S.; Ehrlich, S.; Goerigk, L.
     Effect of the damping function in dispersion corrected density functional theory
     J. Comput. Chem. 2011 32(7), 1456-1465
     doi.org/10.1002/jcc.21759
  5. Garcia-Rates, M.; Neese, F.
     Effect of the Solute Cavity on the Solvation Energy and its Derivatives within the Framework of the Gaussian Charge Scheme
     J. Comput. Chem. 2020 41 , 922-939
     doi.org/10.1002/jcc.26139
  6. Helmich-Paris, B.; de Souza, B.; Neese, F.; Izsák, R.
     An improved chain of spheres for exchange algorithm
     J. Chem. Phys. 2021 155(10), 104109
     doi.org/10.1063/5.0058766
  7. Neese, F.
     The SHARK Integral Generation and Digestion System
     J. Comp. Chem. 2022 44(3), 381
     doi.org/10.1002/jcc.26942

List of suggested additional citations. These are papers that are important in the 'surrounding' of 
of this run, or papers that preceded the highly important papers. If you like your results we are grateful for a citation.

  1. Izsak, R.; Neese, F.
     An overlap fitted chain of spheres exchange method
     J. Chem. Phys. 2011 135 , 144105
     doi.org/10.1063/1.3646921
  2. Izsak, R.; Hansen, A.; Neese, F.
     The resolution of identity and chain of spheres approximations for the LPNO-CCSD singles Fock term
     Molec. Phys. 2012 110 , 2413-2417
     doi.org/10.1080/00268976.2012.687466
  3. Neese, F.
     The ORCA program system
     WIRES Comput. Molec. Sci. 2012 2(1), 73-78
     doi.org/10.1002/wcms.81
  4. Izsak, R.; Neese, F.; Klopper, W.
     Robust fitting techniques in the chain of spheres approximation to the Fock exchange: The role of the complementary space
     J. Chem. Phys. 2013 139 , 
     doi.org/10.1063/1.4819264
  5. Neese, F.
     Software update: the ORCA program system, version 4.0
     WIRES Comput. Molec. Sci. 2018 8(1), 1-6
     doi.org/10.1002/wcms.1327
  6. Neese, F.; Wennmohs, F.; Becker, U.; Riplinger, C.
     The ORCA quantum chemistry program package
     J. Chem. Phys. 2020 152(22), 224108
     doi.org/10.1063/5.0004608
  7. Neese, F.
     Software update: The ORCA program system—Version 5.0
     WIRES Comput. Molec. Sci. 2022 12(1), e1606
     doi.org/10.1002/wcms.1606

List of optional additional citations

  1. Neese, F.
     Approximate second-order SCF convergence for spin unrestricted wavefunctions
     Chem. Phys. Lett. 2000 325(1-3), 93-98
     doi.org/10.1016/s0009-2614(00)00662-x

Timings for individual modules:

Sum of individual times          ...     5009.358 sec (=  83.489 min)
Startup calculation              ...      146.327 sec (=   2.439 min)   2.9 %
SCF iterations                   ...     3134.638 sec (=  52.244 min)  62.6 %
SCF Gradient evaluation          ...     1726.732 sec (=  28.779 min)  34.5 %
Geometry relaxation              ...        1.662 sec (=   0.028 min)   0.0 %
                             ****ORCA TERMINATED NORMALLY****
TOTAL RUN TIME: 0 days 1 hours 23 minutes 59 seconds 709 msec
