
                                 *****************
                                 * O   R   C   A *
                                 *****************

                                            #,                                       
                                            ###                                      
                                            ####                                     
                                            #####                                    
                                            ######                                   
                                           ########,                                 
                                     ,,################,,,,,                         
                               ,,#################################,,                 
                          ,,##########################################,,             
                       ,#########################################, ''#####,          
                    ,#############################################,,   '####,        
                  ,##################################################,,,,####,       
                ,###########''''           ''''###############################       
              ,#####''   ,,,,##########,,,,          '''####'''          '####       
            ,##' ,,,,###########################,,,                        '##       
           ' ,,###''''                  '''############,,,                           
         ,,##''                                '''############,,,,        ,,,,,,###''
      ,#''                                            '''#######################'''  
     '                                                          ''''####''''         
             ,#######,   #######,   ,#######,      ##                                
            ,#'     '#,  ##    ##  ,#'     '#,    #''#        ,####,    ,#,          
            ##       ##  ##   ,#'  ##            #'  '#       #'       ,# #          
            ##       ##  #######   ##           ,######,      #####,      #          
            '#,     ,#'  ##    ##  '#,     ,#' ,#      #,     #,   #      #          
             '#######'   ##     ##  '#######'  #'      '#     '####' #    #          



                #########################################################
                #                        -***-                          #
                #          Department of theory and spectroscopy        #
                #                                                       #
                #                      Frank Neese                      #
                #                                                       #
                #     Directorship, Architecture, Infrastructure        #
                #                    SHARK, DRIVERS                     #
                #        Core code/Algorithms in most modules           #
                #                                                       #
                #        Max Planck Institute fuer Kohlenforschung      #
                #                Kaiser Wilhelm Platz 1                 #
                #                 D-45470 Muelheim/Ruhr                 #
                #                      Germany                          #
                #                                                       #
                #                  All rights reserved                  #
                #                        -***-                          #
                #########################################################


                         Program Version 6.1.1  -  RELEASE   -
                                (GIT: $487d211c$)
                          ($2025-11-21 10:33:24 +0100$)
                                                                         
                                  - NO-DMRG VERSION -                    
                                                                         


 With contributions from (in alphabetic order):
[Max-Planck-Institut fuer Kohlenforschung]                               
  Daniel Aravena         : Magnetic Suceptibility                        
  Michael Atanasov       : Ab Initio Ligand Field Theory (pilot matlab implementation)
  Alexander A. Auer      : GIAO ZORA, VPT2 properties, NMR spectrum      
  Ute Becker             : All parallelization in ORCA, NUMFREQ, NUMCALC 
  Giovanni Bistoni       : ED, misc. LED, open-shell LED, HFLD           
  Dmytro Bykov           : pre 5.0 version of the SCF Hessian            
  Marcos Casanova-Páez   : Triplet and SCS-CIS(D). UHF-(DLPNO)-IP/EA/STEOM-CCSD. UHF-CVS-IP/STEOM-CCSD   
  Vijay G. Chilkuri      : MRCI spin determinant printing, contributions to CSF-ICE 
  Pauline Colinet        : FMM embedding                                 
  Dipayan Datta          : RHF DLPNO-CCSD density                        
  Achintya Kumar Dutta   : EOM-CC, STEOM-CC                              
  Nicolas Foglia         : Exact transition moments, OPA infrastructure, MCD improvements    
  Dmitry Ganyushin       : Spin-Orbit,Spin-Spin,Magnetic field MRCI      
  Miquel Garcia-Rates    : C-PCM and meta-GGA Hessian, CCSD/C-PCM, Gaussian charge scheme 
  Tiago L. C. Gouveia    : GS-ROHF, GS-ROCIS                             
  Yang Guo               : DLPNO-NEVPT2, F12-NEVPT2, CIM, IAO-localization        
  Andreas Hansen         : Spin unrestricted coupled pair/coupled cluster methods 
  Ingolf Harden          : AUTO-CI MPn and infrastructure                
  Benjamin Helmich-Paris : MC-RPA, TRAH-(SCF,CASSCF), AVAS, COSX integrals, SCF dyn. polar., MC-PDFT, srDFT 
  Lee Huntington         : MR-EOM, pCC                                   
  Robert Izsak           : Overlap fitted RIJCOSX, COSX-SCS-MP3, EOM     
  Riya Kayal             : Wick's Theorem for AUTO-CI, AUTO-CI UHF-CCSDT 
  Emily Kempfer          : AUTO-CI RHF CISDT and CCSDT, approximate NEVPT4
  Christian Kollmar      : KDIIS, OOCD, Brueckner-CCSD(T), CCSD density, CASPT2, CASPT2-K, improved NEVPT2 
  Axel Koslowski         : Symmetry handling                             
  Simone Kossmann        : meta-GGA functionals, TD-DFT gradient, OOMP2, (MP2 Hessian; deprecated post 5.0) 
  Lucas Lang             : DCDCAS, Hyperfine gauge corrections, ICE-SOC+SSC
  Marvin Lechner         : AUTO-CI (C++ implementation), FIC-MRCC        
  Spencer Leger          : CASSCF response                               
  Dagmar Lenk            : GEPOL surface, SMD, ORCA-2-JSON               
  Dimitrios Liakos       : Extrapolation schemes; Compound Job, Property file
  Dimitrios Manganas     : Further ROCIS development; embedding schemes. LFT, Crystal Embedding 
  Dimitrios Pantazis     : SARC Basis sets                               
  Anastasios Papadopoulos: AUTO-CI, single reference methods and gradients 
  Taras Petrenko         : pre 6.0 DFT Hessian and TD-DFT gradient,  ECA, NRVS 
  Petra Pikulova         : Analytic Raman intensities                    
  Peter Pinski           : DLPNO-MP2, DLPNO-MP2 Gradient                 
  Shashank Vittal Rao    : ES-AILFT, MagRelax                            
  Christoph Reimann      : Effective Core Potentials                     
  Marius Retegan         : Local ZFS, SOC                                
  Christoph Riplinger    : Optimizer, TS searches, QM/MM, DLPNO-CCSD(T), (RO)-DLPNO pert. Triples 
  Michael Roemelt        : Original ROCIS implementation, recursive CI coupling coefficients
  Masaaki Saitow         : Open-shell DLPNO-CCSD energy and density      
  Barbara Sandhoefer     : DKH picture change effects                    
  Yorick L. A. Schmerwitz: GMF and freeze-and-release deltaSCF, NEB S-IDPP initial path                    
  Kantharuban Sivalingam : CASSCF convergence/infrastructure, NEVPT2, NEVPT3, NEVPT4(SD), FIC-MRCI and CEPA variants
  Bernardo de Souza      : ESD, SOC TD-DFT                               
  Georgi L. Stoychev     : AutoAux, RI-MP2 NMR, DLPNO-MP2 response, X2C  
  Van Anh Tran           : RI-MP2 g-tensors                              
  Willem Van den Heuvel  : Paramagnetic NMR                              
  Zikuan Wang            : NOTCH, Electric field optimization            
  Frank Wennmohs         : Technical directorship and infrastructure     
  Hang Xu                : AUTO-CI-Response properties                   
                                                                         
[FACCTs GmbH]                                                            
  Markus Bursch, Nicolas Foglia, Miquel Garcia-Rates, Ingolf Harden, Hagen Neugebauer, Anastasios Papadopoulos, 
  Christoph Riplinger, Bernardo de Souza, Georgi L. Stoychev                                                    
                                                                 
  APM, various basis sets, CI-OPT, improved COSX, DLPNO-Multilevel,           
  DOCKER, DRACO, updates on ESD, Fragmentator, GOAT, IRC, LR-CPCM, L-BFGS, MBIS, meta-GGA TD-DFT gradient, ML-optimized integration grids, 
  MM, NACMEs, nearIR, NEB, NEB-TS, NL-DFT gradient (VV10), 2- and 3-layer-ONIOM, interface openCOSMO-RS, QMMM,   
  Crystal-QMMM, RESP, rigid body optimization, SF, symmetry and pop. for TD-DFT, various functionals, SOLVATOR                                   
                                                                         
[Other institutions]                                                     
  V. Asgeirsson          : NEB                                           
  Christoph Bannwarth    : sTDA-DFT, sTD-DFT, PBEh-3c, B97-3c, D3        
  Giovanni Bistoni       : ETS/NOCV, ADLD/ADEX, COVALED                  
  Martin Brehm           : Molecular dynamics                            
  Ronald Cardenas        : ETS/NOCV                                      
  Martina Colucci        : COVALED                                       
  Sebastian Ehlert       : rSCAN, r2SCAN, r2SCAN-3c, D4, dhf basis sets  
  Marvin Friede          : D4 for Fr, Ra, Ac-Lr                          
  Lars Goerigk           : TD-DFT with DH, B97 family of functionals     
  Stefan Grimme          : VdW corrections, initial TS optimization, DFT functionals, gCP, sTDA/sTD-DF 
  Waldemar Hujo          : DFT-NL                                        
  H. Jonsson             : NEB                                           
  Holger Kruse           : gCP                                           
  Marcel Mueller         : wB97X-3c, vDZP basis set                      
  Hagen Neugebauer       : wr2SCAN, Native XTB                           
  Gianluca Regni         : ADLD/ADEX                                     
  Tobias Risthaus        : pre 6.0 range-separated hybrid DFT and stability analysis
  Lukas Wittmann         : regularized MP2, r2SCAN double-hybrids, wr2SCAN        
                                                                         
We gratefully acknowledge several colleagues who have allowed us to      
interface, adapt or use parts of their codes:                            
  Ed Valeev, F. Pavosevic, A. Kumar             : LibInt (2-el integral package), F12 methods 
  Garnet Chan, S. Sharma, J. Yang, R. Olivares  : DMRG                   
  Ulf Ekstrom                                   : XCFun DFT Library      
  Mihaly Kallay                                 : mrcc  (arbitrary order and MRCC methods)
  Frank Weinhold                                : gennbo (NPA and NBO analysis)           
  Simon Mueller                                 : openCOSMO-RS                            
  Christopher J. Cramer and Donald G. Truhlar   : smd solvation model                     
  S Lehtola, MJT Oliveira, MAL Marques          : LibXC Library                           
  Liviu Ungur et al                             : ANISO software                          


 Your calculation uses the libint2 library for the computation of 2-el integrals
 For citations please refer to: http://libint.valeyev.net

 Your ORCA version has been built with support for libXC version: 7.0.0
 For citations please refer to: https://libxc.gitlab.io

 This ORCA versions uses:
   CBLAS   interface :  Fast vector & matrix operations
   LAPACKE interface :  Fast linear algebra routines
   SCALAPACK package :  Parallel linear algebra routines
   Shared memory     :  Shared parallel matrices
   BLAS/LAPACK       :  OpenBLAS 0.3.29  USE64BITINT DYNAMIC_ARCH NO_AFFINITY SkylakeX SINGLE_THREADED
        Core in use  :  SkylakeX
   Copyright (c) 2011-2014, The OpenBLAS Project


  ***********************************
  * Starting time: Sat Mar 21 22:12:31 2026
  * Host name:     a11515f09bcc
  * Process ID:    3687
  * Working dir.:  /kaggle/working
  ***********************************

NOTE: MaxCore=3000 MB was set to SCF,MP2,MDCI,CIPSI,MRCI,RASCI and CIS
      => If you want to overwrite this, your respective input block should be placed after the MaxCore statement
Your calculation utilizes the atom-pairwise dispersion correction
with the Becke-Johnson damping scheme (D3BJ)


Warning: RI is on but no J-basis has been assigned. Assigning Def2/J (nothing to worry about!)
================================================================================

----- Orbital basis set information -----
Your calculation utilizes the basis: 6-31G(d,p)
   H-He, Li-Ne : W. J. Hehre, R. Ditchfield and J.A. Pople, J. Chem. Phys. 56, 2257 (1972).
                 Note: He and Ne are unpublished basis sets taken from the Gaussian program.
                 Note: Li and B from J. D. Dill and J. A. Pople, J. Chem. Phys. 62, 2921 (1975).
   Na - Ar     : M. M. Francl, W. J. Pietro, W. J. Hehre, J. S. Binkley, M. S. Gordon, 
                 D. J. DeFrees and J. A. Pople, J. Chem. Phys. 77, 3654 (1982).
   K - Zn      : V. A. Rassolov, J. A. Pople, M. A. Ratner, and T. L. Windus, J. Chem. Phys. 109, 1223 (1998).

----- AuxJ basis set information -----
Your calculation utilizes the auxiliary basis: def2/J
   H-Rn: F. Weigend, Phys. Chem. Chem. Phys. 8, 1057 (2006).
   Fr-Lr: K. Eichkorn, F. Weigend, O. Treutler, R. Ahlrichs; Theor. Chem. Acc. 97, 119 (1997).

================================================================================
                                        WARNINGS
                       Please study these warnings very carefully!
================================================================================


================================================================================
                                       INPUT FILE
================================================================================
NAME = /kaggle/working/Ile-2/Ile_InterFrag.inp
|  1> 
|  2> !RKS B3LYP 6-31G(d,p) TightSCF D3BJ
|  3> 
|  4> %pal nprocs 2 end
|  5> %maxcore 3000
|  6> 
|  7> %elprop
|  8>   Polar 1      # polarizability via CP-SCF
|  9> end
| 10> 
| 11> %output
| 12>   PrintLevel Normal
| 13>   Print[ P_OrbEn ] 2
| 14> end
| 15> 
| 16> *xyz 0 1
| 17>   O      1.615127   -0.247420    0.005234
| 18>   O      2.582148    1.662583    0.714326
| 19>   N      3.894874   -1.449085   -0.845245
| 20>   C      5.278545    0.507852   -0.242765
| 21>   C      3.941964   -0.106630   -0.339511
| 22>   C      6.381719   -0.271905   -0.338847
| 23>   C      5.405913    2.008480   -0.117776
| 24>   C      7.812514    0.178470   -0.287220
| 25>   C      2.786108    0.458770    0.085299
| 26>   H      6.405656    2.314260   -0.408642
| 27>   H      6.038655   -1.811545    2.913595
| 28>   H      6.071403   -1.520355    2.229516
| 29>   H      6.231580   -1.345810   -0.410620
| 30>   H      4.696423    2.583599   -0.720440
| 31>   H      5.283429    2.336461    0.924752
| 32>   H      3.326351    2.258050    0.546491
| 33>   H      8.424022   -0.392303   -0.996510
| 34>   H      8.236767    0.001030    0.711143
| 35>   H      7.942952    1.242176   -0.516565
| 36>   H      2.934101   -1.723101   -1.028771
| 37>   H      4.413382   -1.496112   -1.720977
| 38>   H      0.875822    0.379997   -0.035536
| 39> 
| 40> *
| 41> 
| 42>                          ****END OF INPUT****
================================================================================

                       ****************************
                       * Single Point Calculation *
                       ****************************

---------------------------------
CARTESIAN COORDINATES (ANGSTROEM)
---------------------------------
  O      1.615127   -0.247420    0.005234
  O      2.582148    1.662583    0.714326
  N      3.894874   -1.449085   -0.845245
  C      5.278545    0.507852   -0.242765
  C      3.941964   -0.106630   -0.339511
  C      6.381719   -0.271905   -0.338847
  C      5.405913    2.008480   -0.117776
  C      7.812514    0.178470   -0.287220
  C      2.786108    0.458770    0.085299
  H      6.405656    2.314260   -0.408642
  H      6.038655   -1.811545    2.913595
  H      6.071403   -1.520355    2.229516
  H      6.231580   -1.345810   -0.410620
  H      4.696423    2.583599   -0.720440
  H      5.283429    2.336461    0.924752
  H      3.326351    2.258050    0.546491
  H      8.424022   -0.392303   -0.996510
  H      8.236767    0.001030    0.711143
  H      7.942952    1.242176   -0.516565
  H      2.934101   -1.723101   -1.028771
  H      4.413382   -1.496112   -1.720977
  H      0.875822    0.379997   -0.035536

----------------------------
CARTESIAN COORDINATES (A.U.)
----------------------------
  NO LB      ZA    FRAG     MASS         X           Y           Z
   0 O     8.0000    0    15.999    3.052148   -0.467556    0.009891
   1 O     8.0000    0    15.999    4.879553    3.141827    1.349881
   2 N     7.0000    0    14.007    7.360245   -2.738374   -1.597282
   3 C     6.0000    0    12.011    9.975004    0.959701   -0.458759
   4 C     6.0000    0    12.011    7.449232   -0.201501   -0.641583
   5 C     6.0000    0    12.011   12.059701   -0.513826   -0.640328
   6 C     6.0000    0    12.011   10.215695    3.795477   -0.222564
   7 C     6.0000    0    12.011   14.763512    0.337259   -0.542767
   8 C     6.0000    0    12.011    5.264981    0.866950    0.161192
   9 H     1.0000    0     1.008   12.104936    4.373318   -0.772221
  10 H     1.0000    0     1.008   11.411404   -3.423324    5.505897
  11 H     1.0000    0     1.008   11.473289   -2.873055    4.213175
  12 H     1.0000    0     1.008   11.775980   -2.543212   -0.775959
  13 H     1.0000    0     1.008    8.874953    4.882295   -1.361434
  14 H     1.0000    0     1.008    9.984234    4.415271    1.747528
  15 H     1.0000    0     1.008    6.285892    4.267096    1.032718
  16 H     1.0000    0     1.008   15.919095   -0.741345   -1.883131
  17 H     1.0000    0     1.008   15.565234    0.001946    1.343866
  18 H     1.0000    0     1.008   15.010004    2.347372   -0.976166
  19 H     1.0000    0     1.008    5.544647   -3.256189   -1.944095
  20 H     1.0000    0     1.008    8.340083   -2.827242   -3.252175
  21 H     1.0000    0     1.008    1.655064    0.718090   -0.067153

--------------------------------
INTERNAL COORDINATES (ANGSTROEM)
--------------------------------
 O      0   0   0     0.000000000000     0.00000000     0.00000000
 O      1   0   0     2.255227824171     0.00000000     0.00000000
 N      1   2   0     2.713772224354    96.50814993     0.00000000
 C      3   1   2     2.471260813554    92.48212539   358.54658588
 C      3   1   2     1.435329151756    60.19741069   356.60845195
 C      4   3   1     1.354343237163    89.01744915   164.41528601
 C      4   3   1     1.511201261225   148.61549054   326.08930502
 C      6   4   3     1.500892174601   126.96291617   171.47101945
 C      5   3   1     1.355043832810   118.21188881     0.45992698
 H      7   4   3     1.085168422138   109.59008205   217.85539717
 H      6   4   3     3.614770144983    95.97471110   279.80120247
 H     11   6   4     0.744196295237     3.70054631    71.51753771
 H      6   4   3     1.086722150264   117.45841898   348.08119775
 H      7   4   3     1.094231155267   114.94281760   339.09431927
 H      7   4   3     1.099744741929   111.41776461   101.08069711
 H      2   1   3     0.967774581462   142.77938617    30.43949428
 H      8   6   4     1.096729755087   110.67829901   218.21374259
 H      8   6   4     1.099183443006   110.53301586   100.16009024
 H      8   6   4     1.095939622107   113.42249930   339.34140443
 H      3   1   2     1.015800826177    51.79412462   192.93047554
 H      3   1   2     1.018807450217   135.83707464   269.18692751
 H      1   2   3     0.970508200797    78.01404095   203.76292367

---------------------------
INTERNAL COORDINATES (A.U.)
---------------------------
 O      0   0   0     0.000000000000     0.00000000     0.00000000
 O      1   0   0     4.261762957282     0.00000000     0.00000000
 N      1   2   0     5.128286293871    96.50814993     0.00000000
 C      3   1   2     4.670006143109    92.48212539   358.54658588
 C      3   1   2     2.712379008853    60.19741069   356.60845195
 C      4   3   1     2.559337809566    89.01744915   164.41528601
 C      4   3   1     2.855756516952   148.61549054   326.08930502
 C      6   4   3     2.836275166542   126.96291617   171.47101945
 C      5   3   1     2.560661743470   118.21188881     0.45992698
 H      7   4   3     2.050671127020   109.59008205   217.85539717
 H      6   4   3     6.830925611093    95.97471110   279.80120247
 H     11   6   4     1.406327187877     3.70054631    71.51753771
 H      6   4   3     2.053607247665   117.45841898   348.08119775
 H      7   4   3     2.067797210659   114.94281760   339.09431927
 H      7   4   3     2.078216379466   111.41776461   101.08069711
 H      2   1   3     1.828828918333   142.77938617    30.43949428
 H      8   6   4     2.072518880037   110.67829901   218.21374259
 H      8   6   4     2.077155678222   110.53301586   100.16009024
 H      8   6   4     2.071025745096   113.42249930   339.34140443
 H      3   1   2     1.919585368085    51.79412462   192.93047554
 H      3   1   2     1.925267064108   135.83707464   269.18692751
 H      1   2   3     1.833994710231    78.01404095   203.76292367

---------------------
BASIS SET INFORMATION
---------------------
There are 4 groups of distinct atoms

 Group   1 Type O   : 10s4p1d contracted to 3s2p1d pattern {631/31/1}
 Group   2 Type N   : 10s4p1d contracted to 3s2p1d pattern {631/31/1}
 Group   3 Type C   : 10s4p1d contracted to 3s2p1d pattern {631/31/1}
 Group   4 Type H   : 4s1p contracted to 2s1p pattern {31/1}

Atom   0O    basis set group =>   1
Atom   1O    basis set group =>   1
Atom   2N    basis set group =>   2
Atom   3C    basis set group =>   3
Atom   4C    basis set group =>   3
Atom   5C    basis set group =>   3
Atom   6C    basis set group =>   3
Atom   7C    basis set group =>   3
Atom   8C    basis set group =>   3
Atom   9H    basis set group =>   4
Atom  10H    basis set group =>   4
Atom  11H    basis set group =>   4
Atom  12H    basis set group =>   4
Atom  13H    basis set group =>   4
Atom  14H    basis set group =>   4
Atom  15H    basis set group =>   4
Atom  16H    basis set group =>   4
Atom  17H    basis set group =>   4
Atom  18H    basis set group =>   4
Atom  19H    basis set group =>   4
Atom  20H    basis set group =>   4
Atom  21H    basis set group =>   4
---------------------------------
AUXILIARY/J BASIS SET INFORMATION
---------------------------------
There are 4 groups of distinct atoms

 Group   1 Type O   : 12s5p4d2f1g contracted to 6s4p3d1f1g pattern {711111/2111/211/2/1}
 Group   2 Type N   : 12s5p4d2f1g contracted to 6s4p3d1f1g pattern {711111/2111/211/2/1}
 Group   3 Type C   : 12s5p4d2f1g contracted to 6s4p3d1f1g pattern {711111/2111/211/2/1}
 Group   4 Type H   : 5s2p1d contracted to 3s1p1d pattern {311/2/1}

Atom   0O    basis set group =>   1
Atom   1O    basis set group =>   1
Atom   2N    basis set group =>   2
Atom   3C    basis set group =>   3
Atom   4C    basis set group =>   3
Atom   5C    basis set group =>   3
Atom   6C    basis set group =>   3
Atom   7C    basis set group =>   3
Atom   8C    basis set group =>   3
Atom   9H    basis set group =>   4
Atom  10H    basis set group =>   4
Atom  11H    basis set group =>   4
Atom  12H    basis set group =>   4
Atom  13H    basis set group =>   4
Atom  14H    basis set group =>   4
Atom  15H    basis set group =>   4
Atom  16H    basis set group =>   4
Atom  17H    basis set group =>   4
Atom  18H    basis set group =>   4
Atom  19H    basis set group =>   4
Atom  20H    basis set group =>   4
Atom  21H    basis set group =>   4


           ************************************************************
           *        Program running with 2 parallel MPI-processes     *
           *              working on a common directory               *
           ************************************************************
------------------------------------------------------------------------------
                             ORCA STARTUP CALCULATIONS
                           -- RI-GTO INTEGRALS CHOSEN --
------------------------------------------------------------------------------
------------------------------------------------------------------------------
                   ___                                                        
                  /   \      - P O W E R E D   B Y -                         
                 /     \                                                     
                 |  |  |   _    _      __       _____    __    __             
                 |  |  |  | |  | |    /  \     |  _  \  |  |  /  |          
                  \  \/   | |  | |   /    \    | | | |  |  | /  /          
                 / \  \   | |__| |  /  /\  \   | |_| |  |  |/  /          
                |  |  |   |  __  | /  /__\  \  |    /   |      \           
                |  |  |   | |  | | |   __   |  |    \   |  |\   \          
                \     /   | |  | | |  |  |  |  | |\  \  |  | \   \       
                 \___/    |_|  |_| |__|  |__|  |_| \__\ |__|  \__/        
                                                                              
                      - O R C A' S   B I G   F R I E N D -                    
                                      &                                       
                       - I N T E G R A L  F E E D E R -                       
                                                                              
 v1 FN, 2020, v2 2021, v3 2022-2024                                           
------------------------------------------------------------------------------


----------------------
SHARK INTEGRAL PACKAGE
----------------------

Number of atoms                             ...     22
Number of basis functions                   ...    191
Number of shells                            ...     93
Maximum angular momentum                    ...      2
Integral batch strategy                     ... SHARK/LIBINT Hybrid
RI-J (if used) integral strategy            ... SPLIT-RIJ (Revised 2003 algorithm where possible)
Printlevel                                  ...      1
Contraction scheme used                     ... SEGMENTED contraction
Prescreening option                         ... SCHWARTZ
   Thresh                                   ... 2.500e-11
   Tcut                                     ... 2.500e-12
   Tpresel                                  ... 2.500e-12 
Coulomb Range Separation                    ... NOT USED
Exchange Range Separation                   ... NOT USED
Multipole approximations                    ... NOT USED
Finite Nucleus Model                        ... NOT USED
CABS basis                                  ... NOT available
Auxiliary Coulomb fitting basis             ... AVAILABLE
   # of basis functions in Aux-J            ...    584
   # of shells in Aux-J                     ...    200
   Maximum angular momentum in Aux-J        ...      4
Auxiliary J/K fitting basis                 ... NOT available
Auxiliary Correlation fitting basis         ... NOT available
Auxiliary 'external' fitting basis          ... NOT available

Checking pre-screening integrals            ... done (  0.0 sec) Dimension = 93
   => SHARK Basis and OBASIS are compatible. Storing Pre-screening
Shell pair information
Shell pair cut-off parameter TPreSel        ...   2.5e-12
Total number of shell pairs                 ...      4371
Shell pairs after pre-screening             ...      3777
Total number of primitive shell pairs       ...     20328
Primitive shell pairs kept                  ...     11585
          la=0 lb=0:   1263 shell pairs
          la=1 lb=0:   1400 shell pairs
          la=1 lb=1:    409 shell pairs
          la=2 lb=0:    423 shell pairs
          la=2 lb=1:    240 shell pairs
          la=2 lb=2:     42 shell pairs

Checking whether 4 symmetric matrices of dimension 191 fit in memory
:Max Core in MB      =   3000.00
 MB in use           =      8.42
 MB left             =   2991.58
 MB needed           =      0.56
 Data fit in memory  = YES
Calculating RI/J V-Matrix + Cholesky decomp.... done (  0.0 sec)
Calculating Nuclear repulsion               ... done (  0.0 sec) ENN=    478.068742593851 Eh

Diagonalization of the overlap matrix:
Smallest eigenvalue                        ... 1.266e-03
Time for diagonalization                   ...    0.005 sec
Threshold for overlap eigenvalues          ... 1.000e-07
Number of eigenvalues below threshold      ... 0
Time for construction of square roots      ...    0.002 sec
Total time needed                          ...    0.007 sec

-------------------
DFT GRID GENERATION
-------------------

General Integration Accuracy     IntAcc      ... 4.388
Radial Grid Type                 RadialGrid  ... OptM3 with GC (2021)
Angular Grid (max. ang.)         AngularGrid ... 4 (Lebedev-302)
Angular grid pruning method      GridPruning ... 4 (adaptive)
Weight generation scheme         WeightScheme... mBecke (2022)
Basis function cutoff            BFCut       ... 1.0000e-11
Integration weight cutoff        WCut        ... 1.0000e-14
Partially contracted basis set               ... off
Rotationally invariant grid construction     ... off
Angular grids for H and He will be reduced by one unit

Total number of grid points                  ...    95996
Total number of batches                      ...     1512
Average number of points per batch           ...       63
Average number of grid points per atom       ...     4363

--------------------
COSX GRID GENERATION
--------------------

GRIDX 1
-------
General Integration Accuracy     IntAcc      ... 3.816
Radial Grid Type                 RadialGrid  ... OptM3 with GC (2021)
Angular Grid (max. ang.)         AngularGrid ... 1 (Lebedev-50)
Angular grid pruning method      GridPruning ... 4 (adaptive)
Weight generation scheme         WeightScheme... mBecke (2022)
Basis function cutoff            BFCut       ... 1.0000e-11
Integration weight cutoff        WCut        ... 1.0000e-14
Partially contracted basis set               ... on
Rotationally invariant grid construction     ... off
Angular grids for H and He will be reduced by one unit

Total number of grid points                  ...    12303
Total number of batches                      ...      107
Average number of points per batch           ...      114
Average number of grid points per atom       ...      559
UseSFitting                                  ... on

GRIDX 2
-------
General Integration Accuracy     IntAcc      ... 4.020
Radial Grid Type                 RadialGrid  ... OptM3 with GC (2021)
Angular Grid (max. ang.)         AngularGrid ... 2 (Lebedev-110)
Angular grid pruning method      GridPruning ... 4 (adaptive)
Weight generation scheme         WeightScheme... mBecke (2022)
Basis function cutoff            BFCut       ... 1.0000e-11
Integration weight cutoff        WCut        ... 1.0000e-14
Partially contracted basis set               ... on
Rotationally invariant grid construction     ... off
Angular grids for H and He will be reduced by one unit

Total number of grid points                  ...    25914
Total number of batches                      ...      214
Average number of points per batch           ...      121
Average number of grid points per atom       ...     1178
UseSFitting                                  ... on

GRIDX 3
-------
General Integration Accuracy     IntAcc      ... 4.338
Radial Grid Type                 RadialGrid  ... OptM3 with GC (2021)
Angular Grid (max. ang.)         AngularGrid ... 3 (Lebedev-194)
Angular grid pruning method      GridPruning ... 4 (adaptive)
Weight generation scheme         WeightScheme... mBecke (2022)
Basis function cutoff            BFCut       ... 1.0000e-11
Integration weight cutoff        WCut        ... 1.0000e-14
Partially contracted basis set               ... on
Rotationally invariant grid construction     ... off
Angular grids for H and He will be reduced by one unit

Total number of grid points                  ...    56635
Total number of batches                      ...      456
Average number of points per batch           ...      124
Average number of grid points per atom       ...     2574
UseSFitting                                  ... on
Grids setup in   1.6 sec
Initializing property integral containers    ... done (  0.0 sec)

SHARK setup successfully completed in   1.8 seconds

Maximum memory used throughout the entire STARTUP-calculation: 31.6 MB


           ************************************************************
           *        Program running with 2 parallel MPI-processes     *
           *              working on a common directory               *
           ************************************************************
-------------------------------------------------------------------------------
                                 ORCA GUESS
                   Start orbitals & Density for SCF / CASSCF
-------------------------------------------------------------------------------

------------
SCF SETTINGS
------------
Hamiltonian:
 Density Functional     Method          .... DFT(GTOs)
 Exchange Functional    Exchange        .... B88
   X-Alpha parameter    XAlpha          ....  0.666667
   Becke's b parameter  XBeta           ....  0.004200
 Correlation Functional Correlation     .... LYP
 LDA part of GGA corr.  LDAOpt          .... VWN-5
 Gradients option       PostSCFGGA      .... off
 Hybrid DFT is turned on
   Fraction HF Exchange ScalHFX         ....  0.200000
   Scaling of DF-GGA-X  ScalDFX         ....  0.720000
   Scaling of DF-GGA-C  ScalDFC         ....  0.810000
   Scaling of DF-LDA-C  ScalLDAC        ....  1.000000
   Perturbative correction              ....  0.000000
   NL short-range parameter             ....  4.800000
 RI-approximation to the Coulomb term is turned on
   Number of AuxJ basis functions       .... 584
   RIJ-COSX (HFX calculated with COS-X)).... on


General Settings:
 Integral files         IntName         .... /kaggle/working/Ile-2/Ile_InterFrag
 Hartree-Fock type      HFTyp           .... RHF
 Total Charge           Charge          ....    0
 Multiplicity           Mult            ....    1
 Number of Electrons    NEL             ....   72
 Basis Dimension        Dim             ....  191
 Nuclear Repulsion      ENuc            ....    478.0687425939 Eh

Convergence Acceleration:
 AO-DIIS                CNVDIIS         .... on
   Start iteration      DIISMaxIt       ....    12
   Startup error        DIISStart       ....  0.200000
   # of expansion vecs  DIISMaxEq       ....     5
   Bias factor          DIISBfac        ....   1.050
   Max. coefficient     DIISMaxC        ....  10.000
 MO-DIIS                CNVKDIIS        .... off
 Trust-Rad. Augm. Hess. CNVTRAH         .... auto
   Auto Start mean grad. ratio tolernc. ....  1.125000
   Auto Start start iteration           ....    50
   Auto Start num. interpolation iter.  ....    10
   Max. Number of Micro iterations      ....    24
   Max. Number of Macro iterations      .... Maxiter - #DIIS iter
   Number of Davidson start vectors     ....     2
   Converg. threshold    (grad. norm)   ....   1.000e-05
   Grad. Scal. Fac. for Micro threshold ....   0.100
   Minimum threshold for Micro iter.    ....   1.000e-02
   NR start threshold (gradient norm)   ....   1.000e-04
   Initial trust radius                 ....   0.400
   Minimum AH scaling param. (alpha)    ....   1.000
   Maximum AH scaling param. (alpha)    .... 1000.000
   Quad. conv. algorithm                .... NR
   White noise on init. David. guess    .... on
   Maximum white noise                  ....   0.010
   Pseudo random numbers                .... off
   Inactive MOs                         .... canonical
   Orbital update algorithm             .... Taylor
   Preconditioner                       .... Diag
   Full preconditioner red. dimension   ....   250
 SOSCF                 CNVSOSCF           .... on
   Start iteration     SOSCFMaxIt         ....   150
   Startup grad/error  SOSCFStart         ....  0.003300
   Hessian update      SOSCFHessUp        .... L-BFGS
   Autom. constraints  SOSCFAutoConstrain .... off
 Level Shifting         CNVShift        .... on
   Level shift para.    LevelShift      ....    0.2500
   Turn off err/grad.   ShiftErr        ....    0.0010
 Zerner damping         CNVZerner       .... off
 Static damping         CNVDamp         .... on
   Fraction old density DampFac         ....    0.7000
   Max. Damping (<1)    DampMax         ....    0.9800
   Min. Damping (>=0)   DampMin         ....    0.0000
   Turn off err/grad.   DampErr         ....    0.1000

SCF Procedure:
 Maximum # iterations   MaxIter         ....   125
 SCF integral mode      SCFMode         .... Direct
   Integral package                     .... SHARK and LIBINT hybrid scheme
 Reset frequency        DirectResetFreq ....    20
 Integral Threshold     Thresh          ....  2.500e-11 Eh
 Primitive CutOff       TCut            ....  2.500e-12 Eh

Convergence Tolerance:
 Convergence Check Mode ConvCheckMode   .... Total+1el-Energy
 Convergence forced     ConvForced      .... 0
 Energy Change          TolE            ....  1.000e-08 Eh
 1-El. energy change                    ....  1.000e-05 Eh
 Orbital Gradient       TolG            ....  1.000e-05
 Orbital Rotation angle TolX            ....  1.000e-05
 DIIS Error             TolErr          ....  5.000e-07

------------------------------
INITIAL GUESS: MODEL POTENTIAL
------------------------------
Loading Hartree-Fock densities                     ... done
Calculating cut-offs                               ... done
Initializing the effective Hamiltonian             ... done
Setting up the integral package (SHARK)            ... done
Starting the Coulomb interaction                   ... done (   0.1 sec)
Making the grid                                    ... done (   0.2 sec)
Mapping shells                                     ... done
Starting the XC term evaluation                    ... done (   0.1 sec)
  promolecular density results
     # of electrons  =     71.997367770
     EX              =    -57.666803437
     EC              =     -2.399678504
     EX+EC           =    -60.066481941
Transforming the Hamiltonian                       ... done (   0.0 sec)
Diagonalizing the Hamiltonian                      ... done (   0.0 sec)
Back transforming the eigenvectors                 ... done (   0.0 sec)
Now organizing SCF variables                       ... done
                      ------------------
                      INITIAL GUESS DONE (   0.5 sec)
                      ------------------
             **** ENERGY FILE WAS UPDATED (/kaggle/working/Ile-2/Ile_InterFrag.en.tmp) ****
Finished Guess after   0.8 sec
Maximum memory used throughout the entire GUESS-calculation: 12.2 MB


           ************************************************************
           *        Program running with 2 parallel MPI-processes     *
           *              working on a common directory               *
           ************************************************************

-------------------------------------------------------------------------------------------
                                      ORCA LEAN-SCF
                              memory conserving SCF solver
-------------------------------------------------------------------------------------------

----------------------------------------D-I-I-S--------------------------------------------
Iteration    Energy (Eh)           Delta-E    RMSDP     MaxDP     DIISErr   Damp  Time(sec)
-------------------------------------------------------------------------------------------
               ***  Starting incremental Fock matrix formation  ***
    1    -440.9904666230146972     0.00e+00  4.54e-03  8.15e-02  2.41e-01  0.700   3.8
    2    -441.1538155195474360    -1.63e-01  3.18e-03  5.04e-02  1.09e-01  0.700   2.0
                               ***Turning on AO-DIIS***
    3    -441.2167562490721480    -6.29e-02  1.23e-03  1.72e-02  3.83e-02  0.700   2.0
    4    -441.2540253170521396    -3.73e-02  1.99e-03  2.64e-02  1.93e-02  0.000   1.9
    5    -441.3362381022495242    -8.22e-02  4.64e-04  6.89e-03  8.86e-03  0.000   2.0
                              *** Initializing SOSCF ***
---------------------------------------S-O-S-C-F--------------------------------------
Iteration    Energy (Eh)           Delta-E    RMSDP     MaxDP     MaxGrad    Time(sec)
--------------------------------------------------------------------------------------
    6    -441.3367680075407975    -5.30e-04  1.59e-04  2.24e-03  2.27e-03     1.8
               *** Restarting incremental Fock matrix formation ***
    7    -441.3367323783375582     3.56e-05  9.86e-05  1.58e-03  4.76e-04     3.8
    8    -441.3367308034775647     1.57e-06  5.00e-05  1.02e-03  6.93e-04     2.7
    9    -441.3367385519465529    -7.75e-06  2.90e-05  4.81e-04  1.36e-04     2.5
   10    -441.3367383259459871     2.26e-07  1.31e-05  3.17e-04  1.31e-04     2.5
   11    -441.3367388834207645    -5.57e-07  4.63e-06  6.56e-05  2.07e-05     2.3
   12    -441.3367388880269004    -4.61e-09  2.58e-06  4.16e-05  1.85e-05     2.0
                 **** Energy Check signals convergence ****

               *****************************************************
               *                     SUCCESS                       *
               *           SCF CONVERGED AFTER  12 CYCLES          *
               *****************************************************

Recomputing exchange energy using gridx3       ... done (    6.120 sec)
Old exchange energy                            :    -11.757743747 Eh
New exchange energy                            :    -11.757738831 Eh
Exchange energy change after final integration :      0.000004917 Eh
Total energy after final integration           :   -441.336733983 Eh
             **** ENERGY FILE WAS UPDATED (/kaggle/working/Ile-2/Ile_InterFrag.en.tmp) ****

----------------
TOTAL SCF ENERGY
----------------

Total Energy       :       -441.33673398304427 Eh          -12009.38308 eV

Components:
Nuclear Repulsion  :        478.06874259385137 Eh           13008.91185 eV
Electronic Energy  :       -919.40548149349650 Eh          -25018.29506 eV
One Electron Energy:      -1547.90947051542480 Eh          -42120.75807 eV
Two Electron Energy:        628.50398902192831 Eh           17102.46301 eV

Virial components:
Potential Energy   :       -879.89230124390906 Eh          -23943.08676 eV
Kinetic Energy     :        438.55556726086485 Eh           11933.70368 eV
Virial Ratio       :          2.00634165184483

DFT components:
N(Alpha)           :       36.000007299715 electrons
N(Beta)            :       36.000007299715 electrons
N(Total)           :       72.000014599430 electrons
E(X)               :      -46.701280336192 Eh       
E(C)               :       -2.838797919625 Eh       
E(XC)              :      -49.540078255816 Eh       

---------------
SCF CONVERGENCE
---------------

  Last Energy change         ...    4.6061e-09  Tolerance :   1.0000e-08
  Last MAX-Density change    ...    4.1617e-05  Tolerance :   1.0000e-07
  Last RMS-Density change    ...    2.5829e-06  Tolerance :   5.0000e-09
  Last DIIS Error            ...    2.2722e-03  Tolerance :   5.0000e-07
  Last Orbital Gradient      ...    1.8455e-05  Tolerance :   1.0000e-05
  Last Orbital Rotation      ...    3.0433e-05  Tolerance :   1.0000e-05


----------------
ORBITAL ENERGIES
----------------

  NO   OCC          E(Eh)            E(eV) 
   0   2.0000     -19.173318      -521.7325 
   1   2.0000     -19.168256      -521.5948 
   2   2.0000     -14.306299      -389.2942 
   3   2.0000     -10.274345      -279.5791 
   4   2.0000     -10.191278      -277.3188 
   5   2.0000     -10.184981      -277.1474 
   6   2.0000     -10.184221      -277.1268 
   7   2.0000     -10.170403      -276.7507 
   8   2.0000     -10.164319      -276.5852 
   9   2.0000      -1.085651       -29.5421 
  10   2.0000      -1.017279       -27.6816 
  11   2.0000      -0.883338       -24.0368 
  12   2.0000      -0.797530       -21.7019 
  13   2.0000      -0.728744       -19.8301 
  14   2.0000      -0.705470       -19.1968 
  15   2.0000      -0.659597       -17.9486 
  16   2.0000      -0.599141       -16.3035 
  17   2.0000      -0.562626       -15.3098 
  18   2.0000      -0.506613       -13.7856 
  19   2.0000      -0.495339       -13.4789 
  20   2.0000      -0.474055       -12.8997 
  21   2.0000      -0.447352       -12.1731 
  22   2.0000      -0.432006       -11.7555 
  23   2.0000      -0.420750       -11.4492 
  24   2.0000      -0.409415       -11.1408 
  25   2.0000      -0.404722       -11.0131 
  26   2.0000      -0.397108       -10.8058 
  27   2.0000      -0.388757       -10.5786 
  28   2.0000      -0.377167       -10.2632 
  29   2.0000      -0.365490        -9.9455 
  30   2.0000      -0.355828        -9.6826 
  31   2.0000      -0.333188        -9.0665 
  32   2.0000      -0.323324        -8.7981 
  33   2.0000      -0.300903        -8.1880 
  34   2.0000      -0.233481        -6.3533 
  35   2.0000      -0.162428        -4.4199 
  36   0.0000       0.010882         0.2961 
  37   0.0000       0.072847         1.9823 
  38   0.0000       0.085673         2.3313 
  39   0.0000       0.101129         2.7519 
  40   0.0000       0.114031         3.1029 
  41   0.0000       0.118275         3.2184 
  42   0.0000       0.129986         3.5371 
  43   0.0000       0.152949         4.1619 
  44   0.0000       0.157631         4.2894 
  45   0.0000       0.174458         4.7472 
  46   0.0000       0.175731         4.7819 
  47   0.0000       0.190880         5.1941 
  48   0.0000       0.207039         5.6338 
  49   0.0000       0.211633         5.7588 
  50   0.0000       0.230485         6.2718 
  51   0.0000       0.246430         6.7057 
  52   0.0000       0.258072         7.0225 
  53   0.0000       0.299280         8.1438 
  54   0.0000       0.349328         9.5057 
  55   0.0000       0.426230        11.5983 
  56   0.0000       0.439584        11.9617 
  57   0.0000       0.448286        12.1985 
  58   0.0000       0.499895        13.6028 
  59   0.0000       0.534059        14.5325 
  60   0.0000       0.548046        14.9131 
  61   0.0000       0.556065        15.1313 
  62   0.0000       0.574636        15.6366 
  63   0.0000       0.583328        15.8732 
  64   0.0000       0.603125        16.4119 
  65   0.0000       0.617592        16.8055 
  66   0.0000       0.632098        17.2003 
  67   0.0000       0.657112        17.8809 
  68   0.0000       0.681674        18.5493 
  69   0.0000       0.691657        18.8209 
  70   0.0000       0.709830        19.3155 
  71   0.0000       0.726328        19.7644 
  72   0.0000       0.741091        20.1661 
  73   0.0000       0.745008        20.2727 
  74   0.0000       0.759381        20.6638 
  75   0.0000       0.772285        21.0149 
  76   0.0000       0.798385        21.7251 
  77   0.0000       0.809973        22.0405 
  78   0.0000       0.838117        22.8063 
  79   0.0000       0.844711        22.9858 
  80   0.0000       0.852658        23.2020 
  81   0.0000       0.869078        23.6488 
  82   0.0000       0.870134        23.6776 
  83   0.0000       0.881540        23.9879 
  84   0.0000       0.904826        24.6216 
  85   0.0000       0.913233        24.8503 
  86   0.0000       0.919698        25.0263 
  87   0.0000       0.947434        25.7810 
  88   0.0000       0.957416        26.0526 
  89   0.0000       0.977929        26.6108 
  90   0.0000       0.993040        27.0220 
  91   0.0000       1.002138        27.2696 
  92   0.0000       1.040840        28.3227 
  93   0.0000       1.074114        29.2281 
  94   0.0000       1.108264        30.1574 
  95   0.0000       1.124669        30.6038 
  96   0.0000       1.139508        31.0076 
  97   0.0000       1.163062        31.6485 
  98   0.0000       1.210885        32.9499 
  99   0.0000       1.225124        33.3373 
 100   0.0000       1.240962        33.7683 
 101   0.0000       1.292636        35.1744 
 102   0.0000       1.321233        35.9526 
 103   0.0000       1.349542        36.7229 
 104   0.0000       1.376499        37.4564 
 105   0.0000       1.405068        38.2338 
 106   0.0000       1.426108        38.8064 
 107   0.0000       1.443312        39.2745 
 108   0.0000       1.482022        40.3279 
 109   0.0000       1.523453        41.4553 
 110   0.0000       1.601450        43.5777 
 111   0.0000       1.619533        44.0697 
 112   0.0000       1.623705        44.1832 
 113   0.0000       1.645767        44.7836 
 114   0.0000       1.697504        46.1914 
 115   0.0000       1.699642        46.2496 
 116   0.0000       1.708556        46.4922 
 117   0.0000       1.719451        46.7886 
 118   0.0000       1.737360        47.2760 
 119   0.0000       1.759122        47.8681 
 120   0.0000       1.790682        48.7269 
 121   0.0000       1.813553        49.3493 
 122   0.0000       1.838110        50.0175 
 123   0.0000       1.867240        50.8102 
 124   0.0000       1.871617        50.9293 
 125   0.0000       1.891970        51.4831 
 126   0.0000       1.953088        53.1462 
 127   0.0000       1.957479        53.2657 
 128   0.0000       1.972555        53.6759 
 129   0.0000       2.034373        55.3581 
 130   0.0000       2.043138        55.5966 
 131   0.0000       2.056064        55.9484 
 132   0.0000       2.073050        56.4106 
 133   0.0000       2.085763        56.7565 
 134   0.0000       2.099293        57.1247 
 135   0.0000       2.121961        57.7415 
 136   0.0000       2.133090        58.0443 
 137   0.0000       2.154460        58.6258 
 138   0.0000       2.181814        59.3702 
 139   0.0000       2.215159        60.2775 
 140   0.0000       2.235580        60.8332 
 141   0.0000       2.259663        61.4886 
 142   0.0000       2.284872        62.1745 
 143   0.0000       2.330266        63.4098 
 144   0.0000       2.363724        64.3202 
 145   0.0000       2.367944        64.4350 
 146   0.0000       2.375342        64.6363 
 147   0.0000       2.397312        65.2342 
 148   0.0000       2.406776        65.4917 
 149   0.0000       2.421547        65.8936 
 150   0.0000       2.435333        66.2688 
 151   0.0000       2.447729        66.6061 
 152   0.0000       2.479059        67.4586 
 153   0.0000       2.510175        68.3053 
 154   0.0000       2.559144        69.6379 
 155   0.0000       2.572428        69.9993 
 156   0.0000       2.593164        70.5636 
 157   0.0000       2.602482        70.8171 
 158   0.0000       2.619491        71.2800 
 159   0.0000       2.639656        71.8287 
 160   0.0000       2.640624        71.8550 
 161   0.0000       2.654787        72.2404 
 162   0.0000       2.666305        72.5538 
 163   0.0000       2.701318        73.5066 
 164   0.0000       2.721666        74.0603 
 165   0.0000       2.730074        74.2891 
 166   0.0000       2.766349        75.2762 
 167   0.0000       2.779601        75.6368 
 168   0.0000       2.818655        76.6995 
 169   0.0000       2.826555        76.9145 
 170   0.0000       2.839413        77.2644 
 171   0.0000       2.879309        78.3500 
 172   0.0000       2.901390        78.9508 
 173   0.0000       2.923216        79.5448 
 174   0.0000       2.972535        80.8868 
 175   0.0000       3.024358        82.2970 
 176   0.0000       3.074309        83.6562 
 177   0.0000       3.189031        86.7780 
 178   0.0000       3.211041        87.3769 
 179   0.0000       3.257833        88.6501 
 180   0.0000       3.300167        89.8021 
 181   0.0000       3.368495        91.6614 
 182   0.0000       3.422445        93.1295 
 183   0.0000       3.429086        93.3102 
 184   0.0000       3.457819        94.0920 
 185   0.0000       3.470577        94.4392 
 186   0.0000       3.491856        95.0182 
 187   0.0000       3.521126        95.8147 
 188   0.0000       3.542530        96.3971 
 189   0.0000       3.611707        98.2795 
 190   0.0000       4.173479       113.5661 

                    ********************************
                    * MULLIKEN POPULATION ANALYSIS *
                    ********************************

-----------------------
MULLIKEN ATOMIC CHARGES
-----------------------
   0 O :   -0.523493
   1 O :   -0.536051
   2 N :   -0.613034
   3 C :    0.136289
   4 C :    0.137595
   5 C :   -0.145605
   6 C :   -0.430791
   7 C :   -0.346928
   8 C :    0.414065
   9 H :    0.115901
  10 H :   -0.025743
  11 H :    0.016311
  12 H :    0.104521
  13 H :    0.110398
  14 H :    0.124117
  15 H :    0.322634
  16 H :    0.107370
  17 H :    0.120940
  18 H :    0.098010
  19 H :    0.254294
  20 H :    0.234566
  21 H :    0.324633
Sum of atomic charges:    0.0000000

--------------------------------
MULLIKEN REDUCED ORBITAL CHARGES
--------------------------------
  0 O s       :     3.836430  s :     3.836430
      pz      :     1.858074  p :     4.663574
      px      :     1.222692
      py      :     1.582808
      dz2     :     0.003402  d :     0.023490
      dxz     :     0.002807
      dyz     :     0.003046
      dx2y2   :     0.002801
      dxy     :     0.011434

  1 O s       :     3.832438  s :     3.832438
      pz      :     1.752395  p :     4.680720
      px      :     1.612084
      py      :     1.316241
      dz2     :     0.004373  d :     0.022893
      dxz     :     0.003205
      dyz     :     0.005529
      dx2y2   :     0.003602
      dxy     :     0.006185

  2 N s       :     3.615091  s :     3.615091
      pz      :     1.362284  p :     3.967869
      px      :     1.256106
      py      :     1.349478
      dz2     :     0.008405  d :     0.030074
      dxz     :     0.005175
      dyz     :     0.003717
      dx2y2   :     0.009910
      dxy     :     0.002867

  3 C s       :     3.125425  s :     3.125425
      pz      :     1.002554  p :     2.697222
      px      :     0.899614
      py      :     0.795054
      dz2     :     0.003091  d :     0.041064
      dxz     :     0.007938
      dyz     :     0.005004
      dx2y2   :     0.013180
      dxy     :     0.011850

  4 C s       :     3.063783  s :     3.063783
      pz      :     1.067746  p :     2.745162
      px      :     0.887977
      py      :     0.789440
      dz2     :     0.007448  d :     0.053459
      dxz     :     0.008605
      dyz     :     0.008606
      dx2y2   :     0.014316
      dxy     :     0.014485

  5 C s       :     3.195987  s :     3.195987
      pz      :     1.026111  p :     2.915755
      px      :     0.908416
      py      :     0.981227
      dz2     :     0.002748  d :     0.033864
      dxz     :     0.006686
      dyz     :     0.001776
      dx2y2   :     0.013317
      dxy     :     0.009336

  6 C s       :     3.265759  s :     3.265759
      pz      :     1.031833  p :     3.132310
      px      :     1.086624
      py      :     1.013853
      dz2     :     0.007376  d :     0.032722
      dxz     :     0.003880
      dyz     :     0.007166
      dx2y2   :     0.007559
      dxy     :     0.006742

  7 C s       :     3.239413  s :     3.239413
      pz      :     1.047250  p :     3.074852
      px      :     0.999826
      py      :     1.027776
      dz2     :     0.006485  d :     0.032663
      dxz     :     0.008791
      dyz     :     0.003519
      dx2y2   :     0.008595
      dxy     :     0.005274

  8 C s       :     3.000486  s :     3.000486
      pz      :     0.973813  p :     2.488512
      px      :     0.805520
      py      :     0.709179
      dz2     :     0.011642  d :     0.096937
      dxz     :     0.017284
      dyz     :     0.015566
      dx2y2   :     0.023737
      dxy     :     0.028709

  9 H s       :     0.871999  s :     0.871999
      pz      :     0.002880  p :     0.012100
      px      :     0.006570
      py      :     0.002650

 10 H s       :     1.019022  s :     1.019022
      pz      :     0.005650  p :     0.006721
      px      :     0.000022
      py      :     0.001050

 11 H s       :     0.976597  s :     0.976597
      pz      :     0.006004  p :     0.007092
      px      :     0.000005
      py      :     0.001083

 12 H s       :     0.882735  s :     0.882735
      pz      :     0.003016  p :     0.012743
      px      :     0.002283
      py      :     0.007445

 13 H s       :     0.877972  s :     0.877972
      pz      :     0.004142  p :     0.011630
      px      :     0.004075
      py      :     0.003412

 14 H s       :     0.864333  s :     0.864333
      pz      :     0.006381  p :     0.011550
      px      :     0.002556
      py      :     0.002612

 15 H s       :     0.637451  s :     0.637451
      pz      :     0.009788  p :     0.039915
      px      :     0.017662
      py      :     0.012464

 16 H s       :     0.881254  s :     0.881254
      pz      :     0.004270  p :     0.011376
      px      :     0.003614
      py      :     0.003491

 17 H s       :     0.867598  s :     0.867598
      pz      :     0.006029  p :     0.011461
      px      :     0.002942
      py      :     0.002491

 18 H s       :     0.890370  s :     0.890370
      pz      :     0.002661  p :     0.011620
      px      :     0.002420
      py      :     0.006538

 19 H s       :     0.721556  s :     0.721556
      pz      :     0.005705  p :     0.024150
      px      :     0.012262
      py      :     0.006183

 20 H s       :     0.741576  s :     0.741576
      pz      :     0.010851  p :     0.023858
      px      :     0.007658
      py      :     0.005349

 21 H s       :     0.636835  s :     0.636835
      pz      :     0.010039  p :     0.038531
      px      :     0.015247
      py      :     0.013245


------------------------
MULLIKEN OVERLAP CHARGES
------------------------
B(  0-O ,  1-O ) :  -0.1266 B(  0-O ,  4-C ) :  -0.1190 B(  0-O ,  8-C ) :   0.5887 
B(  0-O , 21-H ) :   0.5795 B(  1-O ,  4-C ) :  -0.1247 B(  1-O ,  8-C ) :   0.5938 
B(  1-O , 15-H ) :   0.6009 B(  2-N ,  3-C ) :  -0.1216 B(  2-N ,  4-C ) :   0.6596 
B(  2-N ,  8-C ) :  -0.1305 B(  2-N , 19-H ) :   0.6716 B(  2-N , 20-H ) :   0.6402 
B(  3-C ,  4-C ) :   0.8570 B(  3-C ,  5-C ) :   1.2607 B(  3-C ,  6-C ) :   0.7191 
B(  3-C ,  8-C ) :  -0.1138 B(  3-C ,  9-H ) :  -0.0502 B(  3-C , 12-H ) :  -0.0608 
B(  3-C , 13-H ) :  -0.0600 B(  3-C , 14-H ) :  -0.0594 B(  4-C ,  5-C ) :  -0.0558 
B(  4-C ,  6-C ) :  -0.1166 B(  4-C ,  8-C ) :   0.9924 B(  4-C , 19-H ) :  -0.0627 
B(  4-C , 20-H ) :  -0.0862 B(  5-C ,  6-C ) :  -0.1385 B(  5-C ,  7-C ) :   0.7101 
B(  5-C , 12-H ) :   0.7365 B(  5-C , 16-H ) :  -0.0587 B(  5-C , 17-H ) :  -0.0649 
B(  5-C , 18-H ) :  -0.0635 B(  6-C ,  9-H ) :   0.7369 B(  6-C , 13-H ) :   0.7278 
B(  6-C , 14-H ) :   0.7315 B(  7-C , 12-H ) :  -0.1079 B(  7-C , 16-H ) :   0.7557 
B(  7-C , 17-H ) :   0.7534 B(  7-C , 18-H ) :   0.7541 B(  8-C , 15-H ) :  -0.0633 
B(  8-C , 21-H ) :  -0.0669 B(  9-H , 14-H ) :  -0.0535 B( 10-H , 11-H ) :   0.8090 
B( 13-H , 14-H ) :  -0.0999 B( 16-H , 17-H ) :  -0.0718 B( 16-H , 18-H ) :  -0.0560 
B( 17-H , 18-H ) :  -0.0626 B( 19-H , 20-H ) :  -0.0529 


                     *******************************
                     * LOEWDIN POPULATION ANALYSIS *
                     *******************************

----------------------
LOEWDIN ATOMIC CHARGES
----------------------
   0 O :   -0.185942
   1 O :   -0.194202
   2 N :   -0.228141
   3 C :   -0.033672
   4 C :   -0.075777
   5 C :   -0.106564
   6 C :   -0.207318
   7 C :   -0.202562
   8 C :    0.093056
   9 H :    0.082535
  10 H :   -0.014281
  11 H :    0.009233
  12 H :    0.076342
  13 H :    0.069372
  14 H :    0.077799
  15 H :    0.173455
  16 H :    0.074616
  17 H :    0.080336
  18 H :    0.068116
  19 H :    0.133911
  20 H :    0.126743
  21 H :    0.182945

-------------------------------
LOEWDIN REDUCED ORBITAL CHARGES
-------------------------------
  0 O s       :     3.469356  s :     3.469356
      pz      :     1.824444  p :     4.668378
      px      :     1.248235
      py      :     1.595699
      dz2     :     0.006111  d :     0.048207
      dxz     :     0.006816
      dyz     :     0.003572
      dx2y2   :     0.007266
      dxy     :     0.024443

  1 O s       :     3.465889  s :     3.465889
      pz      :     1.739783  p :     4.680653
      px      :     1.603074
      py      :     1.337796
      dz2     :     0.008453  d :     0.047660
      dxz     :     0.003480
      dyz     :     0.012847
      dx2y2   :     0.008693
      dxy     :     0.014188

  2 N s       :     3.182235  s :     3.182235
      pz      :     1.375030  p :     3.986536
      px      :     1.262533
      py      :     1.348973
      dz2     :     0.014580  d :     0.059370
      dxz     :     0.009496
      dyz     :     0.008502
      dx2y2   :     0.019960
      dxy     :     0.006833

  3 C s       :     2.875793  s :     2.875793
      pz      :     0.991913  p :     3.055753
      px      :     1.045495
      py      :     1.018344
      dz2     :     0.006448  d :     0.102126
      dxz     :     0.016997
      dyz     :     0.009788
      dx2y2   :     0.036379
      dxy     :     0.032514

  4 C s       :     2.857229  s :     2.857229
      pz      :     1.086850  p :     3.089263
      px      :     1.033845
      py      :     0.968568
      dz2     :     0.015093  d :     0.129284
      dxz     :     0.019394
      dyz     :     0.019342
      dx2y2   :     0.037542
      dxy     :     0.037913

  5 C s       :     2.907829  s :     2.907829
      pz      :     1.019054  p :     3.119217
      px      :     1.030493
      py      :     1.069670
      dz2     :     0.005042  d :     0.079518
      dxz     :     0.013486
      dyz     :     0.003397
      dx2y2   :     0.032794
      dxy     :     0.024798

  6 C s       :     2.908500  s :     2.908500
      pz      :     1.086334  p :     3.232827
      px      :     1.099448
      py      :     1.047044
      dz2     :     0.014337  d :     0.065991
      dxz     :     0.007297
      dyz     :     0.014690
      dx2y2   :     0.016490
      dxy     :     0.013176

  7 C s       :     2.907255  s :     2.907255
      pz      :     1.091070  p :     3.228181
      px      :     1.052414
      py      :     1.084697
      dz2     :     0.012839  d :     0.067127
      dxz     :     0.018023
      dyz     :     0.006392
      dx2y2   :     0.018259
      dxy     :     0.011613

  8 C s       :     2.835970  s :     2.835970
      pz      :     1.017932  p :     2.845811
      px      :     0.947764
      py      :     0.880115
      dz2     :     0.025597  d :     0.225163
      dxz     :     0.038467
      dyz     :     0.035624
      dx2y2   :     0.056474
      dxy     :     0.069002

  9 H s       :     0.875972  s :     0.875972
      pz      :     0.008478  p :     0.041493
      px      :     0.024718
      py      :     0.008297

 10 H s       :     0.998386  s :     0.998386
      pz      :     0.013403  p :     0.015895
      px      :     0.000040
      py      :     0.002452

 11 H s       :     0.973039  s :     0.973039
      pz      :     0.014983  p :     0.017728
      px      :     0.000027
      py      :     0.002718

 12 H s       :     0.880381  s :     0.880381
      pz      :     0.009268  p :     0.043277
      px      :     0.007016
      py      :     0.026992

 13 H s       :     0.890866  s :     0.890866
      pz      :     0.013497  p :     0.039762
      px      :     0.014411
      py      :     0.011855

 14 H s       :     0.882897  s :     0.882897
      pz      :     0.023349  p :     0.039304
      px      :     0.007656
      py      :     0.008299

 15 H s       :     0.703723  s :     0.703723
      pz      :     0.029076  p :     0.122822
      px      :     0.055329
      py      :     0.038418

 16 H s       :     0.887227  s :     0.887227
      pz      :     0.014519  p :     0.038158
      px      :     0.012138
      py      :     0.011501

 17 H s       :     0.881273  s :     0.881273
      pz      :     0.021879  p :     0.038391
      px      :     0.009294
      py      :     0.007219

 18 H s       :     0.892734  s :     0.892734
      pz      :     0.007608  p :     0.039150
      px      :     0.007179
      py      :     0.024363

 19 H s       :     0.785836  s :     0.785836
      pz      :     0.016650  p :     0.080253
      px      :     0.044584
      py      :     0.019019

 20 H s       :     0.795129  s :     0.795129
      pz      :     0.039846  p :     0.078128
      px      :     0.022605
      py      :     0.015677

 21 H s       :     0.700728  s :     0.700728
      pz      :     0.029118  p :     0.116327
      px      :     0.044776
      py      :     0.042432


---------------------------------
LOEWDIN BOND ORDERS (THRESH 0.050000)
---------------------------------
B(  0-O ,  1-O ) :   0.0816 B(  0-O ,  4-C ) :   0.1191 B(  0-O ,  8-C ) :   1.2747 
B(  0-O , 21-H ) :   1.0021 B(  1-O ,  4-C ) :   0.1226 B(  1-O ,  8-C ) :   1.2790 
B(  1-O , 15-H ) :   0.9941 B(  2-N ,  3-C ) :   0.0562 B(  2-N ,  4-C ) :   1.1748 
B(  2-N ,  8-C ) :   0.1297 B(  2-N , 19-H ) :   0.9717 B(  2-N , 20-H ) :   0.9739 
B(  3-C ,  4-C ) :   1.1033 B(  3-C ,  5-C ) :   1.7992 B(  3-C ,  6-C ) :   1.0583 
B(  3-C ,  7-C ) :   0.0676 B(  3-C ,  8-C ) :   0.0753 B(  4-C ,  5-C ) :   0.0825 
B(  4-C ,  8-C ) :   1.6313 B(  5-C ,  6-C ) :   0.0647 B(  5-C ,  7-C ) :   1.1014 
B(  5-C ,  8-C ) :   0.0825 B(  5-C , 12-H ) :   0.9156 B(  6-C ,  9-H ) :   0.9332 
B(  6-C , 13-H ) :   0.9432 B(  6-C , 14-H ) :   0.9386 B(  7-C , 16-H ) :   0.9511 
B(  7-C , 17-H ) :   0.9424 B(  7-C , 18-H ) :   0.9474 B( 10-H , 11-H ) :   0.9928 


------------------------------------------
LOEWDIN REDUCED ORBITAL POPULATIONS PER MO
-------------------------------------------
THRESHOLD FOR PRINTING IS 0.1%%
                      0         1         2         3         4         5   
                 -19.17332 -19.16826 -14.30630 -10.27434 -10.19128 -10.18498
                   2.00000   2.00000   2.00000   2.00000   2.00000   2.00000
                  --------  --------  --------  --------  --------  --------
 0 O  s               0.0      99.9       0.0       0.0       0.0       0.0
 0 O  px              0.0       0.0       0.0       0.1       0.0       0.0
 1 O  s              99.9       0.0       0.0       0.0       0.0       0.0
 1 O  py              0.0       0.0       0.0       0.1       0.0       0.0
 2 N  s               0.0       0.0      99.7       0.0       0.0       0.0
 2 N  py              0.0       0.0       0.0       0.0       0.1       0.0
 3 C  s               0.0       0.0       0.0       0.0       0.0       1.2
 3 C  px              0.0       0.0       0.0       0.0       0.1       0.0
 3 C  py              0.0       0.0       0.0       0.0       0.0       0.2
 4 C  s               0.0       0.0       0.0       0.0      99.3       0.0
 4 C  px              0.0       0.0       0.0       0.2       0.0       0.0
 6 C  s               0.0       0.0       0.0       0.0       0.0      98.3
 8 C  s               0.0       0.0       0.0      99.2       0.0       0.0
 8 C  px              0.0       0.0       0.0       0.0       0.2       0.0

                      6         7         8         9        10        11   
                 -10.18422 -10.17040 -10.16432  -1.08565  -1.01728  -0.88334
                   2.00000   2.00000   2.00000   2.00000   2.00000   2.00000
                  --------  --------  --------  --------  --------  --------
 0 O  s               0.0       0.0       0.0      26.8      32.3       0.8
 0 O  px              0.0       0.0       0.0       0.5       0.0       0.4
 0 O  py              0.0       0.0       0.0       1.7       0.7       0.1
 1 O  s               0.0       0.0       0.0      29.5      30.4       0.2
 1 O  pz              0.0       0.0       0.0       0.7       0.2       0.0
 1 O  px              0.0       0.0       0.0       0.3       1.0       0.0
 1 O  py              0.0       0.0       0.0       1.0       0.1       0.0
 2 N  s               0.0       0.0       0.0       0.1       0.1      38.5
 2 N  pz              0.0       0.0       0.0       0.0       0.0       0.1
 2 N  py              0.0       0.0       0.0       0.1       0.0       2.1
 3 C  s              98.1       0.0       0.1       0.1       0.0       4.2
 3 C  px              0.0       0.0       0.2       0.1       0.0       0.9
 3 C  py              0.0       0.0       0.1       0.0       0.0       0.6
 4 C  s               0.0       0.0       0.0       1.2       0.0      16.8
 4 C  pz              0.0       0.0       0.0       0.2       0.0       0.8
 4 C  px              0.1       0.0       0.0       1.3       0.1       0.0
 4 C  py              0.0       0.0       0.0       0.2       0.2       4.0
 4 C  dz2             0.0       0.0       0.0       0.0       0.0       0.1
 4 C  dyz             0.0       0.0       0.0       0.0       0.0       0.3
 4 C  dx2y2           0.0       0.0       0.0       0.0       0.0       0.1
 5 C  s               0.1       0.0      99.4       0.0       0.0       1.2
 5 C  px              0.2       0.1       0.0       0.0       0.0       0.7
 6 C  s               1.3       0.0       0.0       0.0       0.0       0.6
 6 C  py              0.1       0.0       0.0       0.0       0.0       0.4
 7 C  s               0.0      99.5       0.0       0.0       0.0       0.1
 7 C  px              0.0       0.0       0.1       0.0       0.0       0.1
 8 C  s               0.0       0.0       0.0      16.1       0.0       1.4
 8 C  pz              0.0       0.0       0.0       0.6       1.5       0.5
 8 C  px              0.0       0.0       0.0       3.8       3.9       3.3
 8 C  py              0.0       0.0       0.0       0.8      11.6       1.0
 8 C  dz2             0.0       0.0       0.0       0.3       0.1       0.0
 8 C  dyz             0.0       0.0       0.0       0.3       0.2       0.0
 8 C  dx2y2           0.0       0.0       0.0       0.0       0.8       0.0
 8 C  dxy             0.0       0.0       0.0       0.1       0.5       0.1
 9 H  s               0.0       0.0       0.0       0.0       0.0       0.1
12 H  s               0.0       0.0       0.1       0.0       0.0       0.4
13 H  s               0.0       0.0       0.0       0.0       0.0       0.1
15 H  s               0.0       0.0       0.0       5.8       7.2       0.0
15 H  px              0.0       0.0       0.0       0.5       0.7       0.0
15 H  py              0.0       0.0       0.0       0.5       0.6       0.0
19 H  s               0.0       0.0       0.0       0.1       0.1       8.3
19 H  px              0.0       0.0       0.0       0.0       0.0       0.8
19 H  py              0.0       0.0       0.0       0.0       0.0       0.1
20 H  s               0.0       0.0       0.0       0.0       0.0       8.6
20 H  pz              0.0       0.0       0.0       0.0       0.0       0.7
20 H  px              0.0       0.0       0.0       0.0       0.0       0.3
21 H  s               0.0       0.0       0.0       5.8       6.2       0.4
21 H  px              0.0       0.0       0.0       0.6       0.8       0.0
21 H  py              0.0       0.0       0.0       0.3       0.5       0.0

                     12        13        14        15        16        17   
                  -0.79753  -0.72874  -0.70547  -0.65960  -0.59914  -0.56263
                   2.00000   2.00000   2.00000   2.00000   2.00000   2.00000
                  --------  --------  --------  --------  --------  --------
 0 O  s               0.0       0.2       1.3       0.3       1.8       0.5
 0 O  pz              0.0       0.0       0.0       0.0       0.8       0.1
 0 O  px              0.0       1.3       6.5       4.1       7.6      19.5
 0 O  py              0.0       0.0       0.1       0.0       1.8       3.8
 0 O  dxy             0.0       0.0       0.1       0.1       0.3       0.2
 1 O  s               0.2       0.9       0.9       0.4       0.0       0.1
 1 O  pz              0.0       0.1       0.3       0.1       0.6       0.8
 1 O  px              0.0       0.1       0.1       0.0       6.9       2.3
 1 O  py              0.0       0.6       4.2       0.7      22.9      13.8
 1 O  dyz             0.0       0.0       0.0       0.0       0.2       0.1
 1 O  dx2y2           0.0       0.0       0.0       0.0       0.2       0.0
 1 O  dxy             0.0       0.0       0.1       0.0       0.1       0.1
 2 N  s               5.6       2.1       4.3       0.1       0.6       0.1
 2 N  pz              0.3       0.5       1.5       0.0       1.2       0.2
 2 N  px              0.3       0.0       0.0       1.2       0.0       2.0
 2 N  py              0.1       0.6       1.5       0.1       2.0       0.1
 3 C  s              21.6       1.2       0.0       7.7       0.0       0.3
 3 C  pz              0.0       0.1       0.0       0.1       0.0       0.0
 3 C  px              1.4       5.0       0.9       0.2       6.1       6.9
 3 C  py              0.3       3.1       4.7       7.8       0.0       0.2
 3 C  dz2             0.2       0.0       0.0       0.0       0.0       0.0
 3 C  dx2y2           0.0       0.0       0.2       0.1       0.0       0.0
 3 C  dxy             0.0       0.1       0.0       0.0       0.1       0.2
 4 C  s               0.9       4.7       8.0       0.1       5.6       1.4
 4 C  pz              0.4       0.6       1.4       0.1       0.0       0.0
 4 C  px              3.0       0.4       2.9       8.5       0.1       4.4
 4 C  py              3.5       2.9       2.6       0.0       0.3       0.9
 4 C  dx2y2           0.2       0.1       0.2       0.0       0.0       0.1
 5 C  s              16.1       9.3       1.0       4.2       1.9       4.7
 5 C  px              0.4       4.8       0.4      10.9       0.8       0.1
 5 C  py              1.9       0.0       0.1       0.1       0.0       0.2
 5 C  dz2             0.1       0.1       0.0       0.0       0.0       0.0
 5 C  dxy             0.1       0.0       0.0       0.2       0.0       0.0
 6 C  s              13.7       7.2      13.7       7.8       0.5       0.0
 6 C  px              0.0       0.3       0.0       0.0       1.4       0.1
 6 C  py              2.1       0.0       0.4       2.6       0.0       0.3
 7 C  s               6.6      20.8       2.2      11.0       1.9       1.6
 7 C  px              1.7       0.5       0.0       1.4       1.3       3.0
 7 C  py              0.0       0.1       0.1       0.2       0.0       0.3
 8 C  s               0.1       3.5      12.2       2.7       2.5       0.0
 8 C  pz              0.0       0.3       0.3       0.1       2.6       1.0
 8 C  px              0.3       2.5       3.5       0.1       7.6       0.6
 8 C  py              0.0       0.5       0.9       0.5       2.3       9.8
 8 C  dx2y2           0.0       0.0       0.0       0.0       0.1       0.0
 8 C  dxy             0.0       0.0       0.1       0.0       0.0       0.4
 9 H  s               3.2       1.0       3.8       3.5       0.6       0.0
 9 H  px              0.1       0.1       0.2       0.1       0.0       0.0
12 H  s               2.2       2.2       0.2       1.6       0.6       1.8
12 H  py              0.1       0.1       0.0       0.1       0.0       0.1
13 H  s               2.5       2.1       4.0       3.1       0.0       0.0
14 H  s               2.6       1.8       4.1       2.9       0.0       0.1
14 H  pz              0.1       0.1       0.2       0.2       0.0       0.0
15 H  s               0.0       0.1       1.8       0.1       8.8       4.9
15 H  px              0.0       0.1       0.1       0.1       0.4       0.3
16 H  s               1.1       4.8       0.6       3.6       1.0       1.1
16 H  pz              0.0       0.1       0.0       0.1       0.0       0.0
16 H  px              0.0       0.1       0.0       0.1       0.0       0.0
17 H  s               1.2       4.7       0.6       3.5       0.9       1.1
17 H  pz              0.0       0.2       0.0       0.2       0.1       0.1
18 H  s               1.5       4.3       0.3       4.2       0.7       1.2
18 H  py              0.1       0.3       0.0       0.2       0.0       0.1
19 H  s               1.8       0.7       1.5       0.6       0.5       0.6
19 H  px              0.2       0.1       0.2       0.0       0.1       0.0
20 H  s               1.3       1.1       2.2       0.0       0.9       0.5
20 H  pz              0.1       0.1       0.1       0.0       0.0       0.0
21 H  s               0.0       0.4       2.1       1.3       2.0       6.5
21 H  px              0.0       0.0       0.1       0.0       0.0       0.1
21 H  py              0.0       0.0       0.2       0.1       0.3       0.2

                     18        19        20        21        22        23   
                  -0.50661  -0.49534  -0.47405  -0.44735  -0.43201  -0.42075
                   2.00000   2.00000   2.00000   2.00000   2.00000   2.00000
                  --------  --------  --------  --------  --------  --------
 0 O  s               0.2       0.0       0.2       0.4       1.2       2.1
 0 O  pz              0.2       1.0       0.0       3.4       4.2       4.1
 0 O  px              8.5       7.7       3.1       0.0       0.4       0.3
 0 O  py              0.5       0.4       0.1       3.8       5.5      14.0
 0 O  dxy             0.1       0.2       0.1       0.0       0.0       0.0
 1 O  s               0.7       0.4       1.7       0.5       0.1       0.2
 1 O  pz              1.0       0.7       1.6       5.4       4.3       4.7
 1 O  px              0.8       2.2       4.4       0.8       6.1       0.7
 1 O  py              1.4       0.5       0.0       2.1       1.8       1.9
 2 N  s               0.0       0.1       0.0       0.1       0.0       0.0
 2 N  pz              0.1       0.5      16.0       6.1       2.1       0.2
 2 N  px              0.1      16.3       2.2      10.5       8.4       0.0
 2 N  py              0.1       7.5       9.6       0.9       0.2       0.5
 2 N  dz2             0.0       0.0       0.1       0.1       0.1       0.0
 2 N  dxz             0.0       0.0       0.1       0.1       0.1       0.0
 2 N  dx2y2           0.0       0.3       0.2       0.1       0.0       0.0
 3 C  s               6.6       0.5       0.6       0.6       0.3       0.0
 3 C  pz              0.0       0.4       0.0       2.1       3.2       3.8
 3 C  px              0.1       3.8       3.5       3.0       0.5       0.2
 3 C  py              1.4       2.9       0.8       0.0       0.4       0.0
 3 C  dxy             0.1       0.1       0.0       0.0       0.0       0.0
 4 C  s               0.3       0.7       1.7       0.0       0.0       0.0
[...]
  5 C      6.1456     6.0000    -0.1456     3.9119     3.9119     0.0000
  6 C      6.4308     6.0000    -0.4308     3.8856     3.8856     0.0000
  7 C      6.3469     6.0000    -0.3469     3.9007     3.9007     0.0000
  8 C      5.5859     6.0000     0.4141     3.7465     3.7465     0.0000
  9 H      0.8841     1.0000     0.1159     0.9651     0.9651    -0.0000
 10 H      1.0257     1.0000    -0.0257     0.9967     0.9967     0.0000
 11 H      0.9837     1.0000     0.0163     1.0086     1.0086     0.0000
 12 H      0.8955     1.0000     0.1045     0.9691     0.9691     0.0000
 13 H      0.8896     1.0000     0.1104     0.9529     0.9529     0.0000
 14 H      0.8759     1.0000     0.1241     0.9447     0.9447     0.0000
 15 H      0.6774     1.0000     0.3226     0.9219     0.9219     0.0000
 16 H      0.8926     1.0000     0.1074     0.9523     0.9523    -0.0000
 17 H      0.8791     1.0000     0.1209     0.9473     0.9473    -0.0000
 18 H      0.9020     1.0000     0.0980     0.9602     0.9602     0.0000
 19 H      0.7457     1.0000     0.2543     0.9286     0.9286    -0.0000
 20 H      0.7654     1.0000     0.2346     0.9252     0.9252     0.0000
 21 H      0.6754     1.0000     0.3246     0.9013     0.9013     0.0000

  Mayer bond orders larger than 0.100000
B(  0-O ,  8-C ) :   0.9907 B(  0-O , 21-H ) :   0.8584 B(  1-O ,  8-C ) :   0.9931 
B(  1-O , 15-H ) :   0.8386 B(  2-N ,  4-C ) :   1.0126 B(  2-N , 19-H ) :   0.8878 
B(  2-N , 20-H ) :   0.8958 B(  3-C ,  4-C ) :   1.1075 B(  3-C ,  5-C ) :   1.7970 
B(  3-C ,  6-C ) :   0.9885 B(  4-C ,  8-C ) :   1.5924 B(  5-C ,  7-C ) :   1.0122 
B(  5-C , 12-H ) :   0.9240 B(  6-C ,  9-H ) :   0.9421 B(  6-C , 13-H ) :   0.9410 
B(  6-C , 14-H ) :   0.9355 B(  7-C , 16-H ) :   0.9586 B(  7-C , 17-H ) :   0.9466 
B(  7-C , 18-H ) :   0.9538 B( 10-H , 11-H ) :   0.9901 

-------
TIMINGS
-------

Total SCF time: 0 days 0 hours 0 min 37 sec 

Total time                  ....      37.906 sec
Sum of individual times     ....      36.020 sec  ( 95.0%)

SCF preparation             ....       0.346 sec  (  0.9%)
Fock matrix formation       ....      35.254 sec  ( 93.0%)
  Startup                   ....       0.004 sec  (  0.0% of F)
  Split-RI-J                ....       3.007 sec  (  8.5% of F)
  Chain of spheres X        ....      27.907 sec  ( 79.2% of F)
  XC integration            ....       6.115 sec  ( 17.3% of F)
    XC Preparation          ....       0.000 sec  (  0.0% of XC)
    Basis function eval.    ....       2.365 sec  ( 38.7% of XC)
    Density eval.           ....       1.259 sec  ( 20.6% of XC)
    XC-Functional eval.     ....       0.385 sec  (  6.3% of XC)
    XC-Potential eval.      ....       1.734 sec  ( 28.3% of XC)
Diagonalization             ....       0.000 sec  (  0.0%)
Density matrix formation    ....       0.028 sec  (  0.1%)
Total Energy calculation    ....       0.013 sec  (  0.0%)
Population analysis         ....       0.177 sec  (  0.5%)
Orbital Transformation      ....       0.022 sec  (  0.1%)
Orbital Orthonormalization  ....       0.000 sec  (  0.0%)
DIIS solution               ....       0.105 sec  (  0.3%)
  MO trafo                  ....       0.000 sec  (  0.0 % of DIIS)
  Orb grad                  ....       0.000 sec  (  0.0 % of DIIS)
  Energy W gradient         ....       0.000 sec  (  0.0 % of DIIS)
  DIIS error                ....       0.022 sec  ( 21.1 % of DIIS)
  DIIS work                 ....       0.068 sec  ( 65.2 % of DIIS)
  Form Q                    ....       0.000 sec  (  0.0 % of DIIS)
  Form QpQm                 ....       0.000 sec  (  0.0 % of DIIS)
  Exp/Cayley                ....       0.000 sec  (  0.0 % of DIIS)
  Orb update                ....       0.000 sec  (  0.0 % of DIIS)
  Wake-sleep                ....       0.004 sec  (  3.7 % of DIIS)
SOSCF solution              ....       0.077 sec  (  0.2%)
  MO trafo                  ....       0.026 sec  ( 33.6 % of SOSCF)
  Orb grad                  ....       0.002 sec  (  3.1 % of SOSCF)
  Rot update                ....       0.009 sec  ( 11.8 % of SOSCF)
  Step                      ....       0.035 sec  ( 46.2 % of SOSCF)
Finished LeanSCF after  37.9 sec

Maximum memory used throughout the entire LEANSCF-calculation: 20.9 MB


-------------------------------------------------------------------------------
                          DFT DISPERSION CORRECTION                            
                                                                               
                              DFTD3 V3.1  Rev 1                                
                          USING Becke-Johnson damping                          
-------------------------------------------------------------------------------
The B3LYP functional is recognized
Active option DFTDOPT                   ...         4   

molecular C6(AA) [au] = 3810.131261 


            DFT-D V3
 parameters
 s6 scaling factor         :     1.0000 
 a1 scaling factor         :     0.3981 
 s8 scaling factor         :     1.9889 
 a2 scaling factor         :     4.4211 
 ad hoc parameters k1-k3   :    16.0000     1.3333    -4.0000 

 Edisp/kcal,au: -20.378515972373  -0.032475228886 
 E6   /kcal   :  -9.959606749 
 E8   /kcal   : -10.418909223 
 % E8         :  51.126928169 

-------------------------   ----------------
Dispersion correction           -0.032475229
-------------------------   ----------------


-------------------------   --------------------
FINAL SINGLE POINT ENERGY      -441.369209211931
-------------------------   --------------------



           ************************************************************
           *        Program running with 2 parallel MPI-processes     *
           *              working on a common directory               *
           ************************************************************
------------------------------------------------------------------------------
                            ORCA SCF RESPONSE CALCULATION
------------------------------------------------------------------------------

GBWName                                 ... /kaggle/working/Ile-2/Ile_InterFrag.gbw
Number of atoms                         ...     22
Number of basis functions               ...    191
Max core memory                         ...   3000 MB

Electric field perturbation             ... YES
Quadrupolar field perturbation          ...  NO
Magnetic field perturbation (no GIAO)   ...  NO
Magnetic field perturbation (with GIAO) ...  NO
Linear momentum (velocity) perturbation ...  NO
Spin-orbit coupling perturbation        ...  NO
Choice of electric origin               ... Center of mass
Position of electric origin             ...     8.251611     0.554979    -0.197815
Choice of magnetic origin               ... GIAO
Position of magnetic origin             ...     0.000000     0.000000     0.000000
Nuclear geometric perturbations         ...  NO (  66 perturbations)
Nucleus-orbit perturbations             ...  NO (   0 perturbations)
Spin-dipole/Fermi contact perturbations ...  NO (   0 perturbations)

Total number of real perturbations      ...      3
Total number of imaginary perturbations ...      0
Total number of triplet perturbations   ...      0
Total number of SOC perturbations       ...      0

Using XC Grid                  ... (/kaggle/working/Ile-2/Ile_InterFrag.grid_cpscf.tmp) 
Recalculating density on grid  ... (/kaggle/working/Ile-2/Ile_InterFrag.grho_cpscf0.tmp) done
Calculating the xc-kernel      ... (/kaggle/working/Ile-2/Ile_InterFrag.fxc_cpscf0.tmp) done

                                **********************
                                * REAL PERTURBATIONS *
                                **********************



-------------------
SHARK CP-SCF DRIVER
-------------------

Dimension of the orbital basis          ...    191
Dimension of the CPSCF-problem          ...   5580
Number of operators                     ...      1
Max. number of iterations               ...    128
Convergence Tolerance                   ... 1.0e-04
Number of perturbations                 ...      3
Perturbation type                       ... REAL

----------------------------
POPLE LINEAR EQUATION SOLVER
----------------------------

  ITERATION   0:   ||err||_max =   2.2395e+01 (   1.6 sec   0/  3 done)
  ITERATION   1:   ||err||_max =   9.8171e-01 (   1.4 sec   0/  3 done)
  ITERATION   2:   ||err||_max =   3.1197e-01 (   1.5 sec   0/  3 done)
  ITERATION   3:   ||err||_max =   9.1008e-02 (   1.5 sec   0/  3 done)
  ITERATION   4:   ||err||_max =   3.1012e-02 (   1.5 sec   0/  3 done)
  ITERATION   5:   ||err||_max =   9.7997e-03 (   1.5 sec   0/  3 done)
  ITERATION   6:   ||err||_max =   3.7414e-03 (   1.5 sec   0/  3 done)
  ITERATION   7:   ||err||_max =   9.2372e-04 (   1.5 sec   0/  3 done)
  ITERATION   8:   ||err||_max =   3.0531e-04 (   1.5 sec   0/  3 done)
  ITERATION   9:   ||err||_max =   7.7726e-05 (   1.5 sec   3/  3 done)

CP-SCF equations solved in  14.9 sec
Response densities calculated in   0.0 sec

Maximum memory used throughout the entire SCFRESP-calculation: 23.1 MB


           ************************************************************
           *        Program running with 2 parallel MPI-processes     *
           *              working on a common directory               *
           ************************************************************

------------------------------------------------------------------------------
                              ORCA PROPERTY CALCULATIONS
------------------------------------------------------------------------------

GBWName                                 ... /kaggle/working/Ile-2/Ile_InterFrag.gbw
Number of atoms                         ...     22
Number of basis functions               ...    191
Max core memory                         ...   3000 MB

Electric properties:
Dipole moment                           ... YES
Quadrupole moment                       ...  NO
Static polarizability (Dipole/Dipole)   ... YES
Static polarizability (Dipole/Quad.)    ...  NO
Static polarizability (Quad./Quad.)     ...  NO
Static polarizability (Velocity)        ...  NO
Static hyperpolarizability              ...  NO

Atomic electric properties:
Dipole moment                           ...  NO
Quadrupole moment                       ...  NO
Static polarizability                   ...  NO

Choice of electric origin               ... Center of mass
Position of electric origin             ...     8.251611     0.554979    -0.197815

General magnetic properties:
Magnetizability                         ...  NO

EPR properties:
g-Tensor (aka g-matrix)                 ...  NO
Zero-Field splitting spin-orbit         ...  NO
Zero-field splitting spin-spin          ...  NO
Hyperfine couplings                     ...  NO (   0 nuclei)
Quadrupole couplings                    ...  NO (   0 nuclei)
Contact density                         ...  NO (   0 nuclei)

NMR properties:
Chemical shifts                         ...  NO (   0 nuclei)
Spin-rotation constants                 ...  NO (   0 nuclei)
Spin-spin couplings                     ...  NO (   0 nuclei,    0 pairs)

Choice of magnetic origin               ... GIAO
Position of magnetic origin             ...     0.000000     0.000000     0.000000

Properties with geometric perturbations:
SCF Hessian                             ...  NO
IR spectrum                             ...  NO
VCD spectrum                            ...  NO
X-ray spectroscopy properties:
SCF XES/XAS/RIXS spectra                ...  NO

SCF SOC stabilization energy            ...  NO
Diagonal Born-Oppenheimer correction    ...  NO

-------------
DIPOLE MOMENT
-------------

Method             : SCF
Type of density    : Electron Density
Multiplicity       :   1
Irrep              :   0
Energy             :  -441.3367339830442688 Eh
Basis              : AO
                                X                 Y                 Z
Electronic contribution:    -13.204862716       1.830279410      -3.360737332
Nuclear contribution   :     13.172870363      -0.927578659       2.681832431
                        -----------------------------------------
Total Dipole Moment    :     -0.031992354       0.902700750      -0.678904901
                        -----------------------------------------
Magnitude (a.u.)       :      1.129957530
Magnitude (Debye)      :      2.872123790



--------------------
Rotational spectrum 
--------------------
 
Rotational constants in cm-1:             0.085812             0.031801             0.025398 
Rotational constants in MHz :          2572.579924           953.375015           761.406777 

Dipole components along the rotational axes: 
x,y,z [a.u.] :    -0.005406     0.695671    -0.890403 
x,y,z [Debye]:    -0.013741     1.768255    -2.263224 

 

Dipole moment calculation done in   0.0 sec 


---------------------------------------------------
STATIC POLARIZABILITY TENSOR (Dipole/Dipole)
---------------------------------------------------

Method             : SCF
Type of density    : Electron Density
Type of derivative : Electric Field (Direction=X)
Multiplicity       :   1
Irrep              :   0
Basis              : AO

The raw cartesian tensor (atomic units):
     127.371283399       -11.737160745        -6.845565426  
     -11.737160745        80.499974724         6.750453459  
      -6.845565426         6.750453459        57.752219602  
diagonalized tensor: 
      55.712400001        78.838595078       131.072482646  

Orientation: 
       0.053528160         0.258310588        -0.964577823  
      -0.238711019         0.941266005         0.238820765  
       0.969614246         0.217471719         0.112045821  

Isotropic polarizability :  88.54116


Polarizability tensor calculation done in   0.0 sec 

Maximum memory used throughout the entire PROP-calculation: 10.9 MB

--------------------------------
SUGGESTED CITATIONS FOR THIS RUN
--------------------------------

Below you find a list of papers that are relevant to this ORCA run
We neither can nor want to force you to cite these papers, but we appreciate if you do
You receive ORCA, which is the product of decades of hard work by many enthusiastic individuals, for free
The only thing we kindly ask in return is that you cite our papers,
We deeply appreciate it, if you show your appreciation for ORCA by not just citing the generic ORCA reference.

Please note that relegating all ORCA citations to the supporting information does *not* help us.
SI sections are not indexed - citations you put there will not count into any citation statistics
But we need these citations in order to attract the funding resources that allow us to do what we are doing

Therefore, if you are a happy ORCA user, please consider citing a few of the papers listed below in the main body of your paper

In addition to the list printed below, the program has created the file /kaggle/working/Ile-2/Ile_InterFrag.bibtex that contains the list in bibtex format
You can import this file easily into all common literature databanks and citation aid programs

It goes without saying that in many instances, there are alternative algorithms to achieve similar
results as the ones you have gotten from ORCA. It is, of course, also the case that in some instances
ORCA just re-implements algorithms worked out by others. We are fully aware of that and we are also
fully appreciative of our colleagues work. Hence this citation list should not be read as indicating
that the listed papers, which are focused on our own work, are the only ones worth citing. It simply
meant to make it easier for users to cite ORCA specific papers. It is not a substitute for doing your
own literature research and citing the relevant literature in a scientifically appropriate manner.

List of essential papers. We consider these as the minimum necessary citations

  1. Neese, F.
     Software update: the ORCA program system, version 6.0
     WIRES Comput. Molec. Sci. 2025 15(1), e70019
     doi.org/10.1002/wcms.70019

List of papers to cite with high priority. The work reported in these papers was absolutely
necessary for this run to complete.
Our perspective: the developers of density functionals and basis sets usually get cited in chemistry papers
Good! But without the algorithms to do something with them, the functionals or basis sets would not do anything.
Hence, in our opinion, the algorithm design and method developments papers are equally worthy of getting cited

  1. Neese, F.
     An improvement of the resolution of the identity approximation for the formation of the Coulomb matrix
     J. Comp. Chem. 2003 24(14), 1740-1747
     doi.org/10.1002/jcc.10318
  2. Neese, F.; Wennmohs, F.; Hansen, A.; Becker, U.
     Efficient, approximate and parallel Hartree-Fock and hybrid DFT calculations. A 'chain-of-spheres' algorithm for the Hartree-Fock exchange
     Chem. Phys. 2009 356(1-3), 98-109
     doi.org/10.1016/j.chemphys.2008.10.036
  3. Grimme, S.; Antony, J.; Ehrlich, S.; Krieg, H.
     A consistent and accurate ab initio parametrization of density functional dispersion correction (DFT-D) for the 94 elements H-Pu
     J. Chem. Phys. 2010 132 , 154104
     doi.org/10.1063/1.3382344
  4. Grimme, S.; Ehrlich, S.; Goerigk, L.
     Effect of the damping function in dispersion corrected density functional theory
     J. Comput. Chem. 2011 32(7), 1456-1465
     doi.org/10.1002/jcc.21759
  5. Helmich-Paris, B.; de Souza, B.; Neese, F.; Izsák, R.
     An improved chain of spheres for exchange algorithm
     J. Chem. Phys. 2021 155(10), 104109
     doi.org/10.1063/5.0058766
  6. Neese, F.
     The SHARK Integral Generation and Digestion System
     J. Comp. Chem. 2022 44(3), 381
     doi.org/10.1002/jcc.26942

List of suggested additional citations. These are papers that are important in the 'surrounding' of 
of this run, or papers that preceded the highly important papers. If you like your results we are grateful for a citation.

  1. Izsak, R.; Neese, F.
     An overlap fitted chain of spheres exchange method
     J. Chem. Phys. 2011 135 , 144105
     doi.org/10.1063/1.3646921
  2. Izsak, R.; Hansen, A.; Neese, F.
     The resolution of identity and chain of spheres approximations for the LPNO-CCSD singles Fock term
     Molec. Phys. 2012 110 , 2413-2417
     doi.org/10.1080/00268976.2012.687466
  3. Neese, F.
     The ORCA program system
     WIRES Comput. Molec. Sci. 2012 2(1), 73-78
     doi.org/10.1002/wcms.81
  4. Izsak, R.; Neese, F.; Klopper, W.
     Robust fitting techniques in the chain of spheres approximation to the Fock exchange: The role of the complementary space
     J. Chem. Phys. 2013 139 , 
     doi.org/10.1063/1.4819264
  5. Neese, F.
     Software update: the ORCA program system, version 4.0
     WIRES Comput. Molec. Sci. 2018 8(1), 1-6
     doi.org/10.1002/wcms.1327
  6. Neese, F.; Wennmohs, F.; Becker, U.; Riplinger, C.
     The ORCA quantum chemistry program package
     J. Chem. Phys. 2020 152(22), 224108
     doi.org/10.1063/5.0004608
  7. Neese, F.
     Software update: The ORCA program system—Version 5.0
     WIRES Comput. Molec. Sci. 2022 12(1), e1606
     doi.org/10.1002/wcms.1606

List of optional additional citations

  1. Neese, F.
     Approximate second-order SCF convergence for spin unrestricted wavefunctions
     Chem. Phys. Lett. 2000 325(1-3), 93-98
     doi.org/10.1016/s0009-2614(00)00662-x

Timings for individual modules:

Sum of individual times          ...       57.033 sec (=   0.951 min)
Startup calculation              ...        2.128 sec (=   0.035 min)   3.7 %
SCF iterations                   ...       38.937 sec (=   0.649 min)  68.3 %
SCF Response                     ...       15.535 sec (=   0.259 min)  27.2 %
Property calculations            ...        0.434 sec (=   0.007 min)   0.8 %
                             ****ORCA TERMINATED NORMALLY****
TOTAL RUN TIME: 0 days 0 hours 0 minutes 57 seconds 524 msec
