
                                 *****************
                                 * O   R   C   A *
                                 *****************

                                            #,                                       
                                            ###                                      
                                            ####                                     
                                            #####                                    
                                            ######                                   
                                           ########,                                 
                                     ,,################,,,,,                         
                               ,,#################################,,                 
                          ,,##########################################,,             
                       ,#########################################, ''#####,          
                    ,#############################################,,   '####,        
                  ,##################################################,,,,####,       
                ,###########''''           ''''###############################       
              ,#####''   ,,,,##########,,,,          '''####'''          '####       
            ,##' ,,,,###########################,,,                        '##       
           ' ,,###''''                  '''############,,,                           
         ,,##''                                '''############,,,,        ,,,,,,###''
      ,#''                                            '''#######################'''  
     '                                                          ''''####''''         
             ,#######,   #######,   ,#######,      ##                                
            ,#'     '#,  ##    ##  ,#'     '#,    #''#        ,####,    ,#,          
            ##       ##  ##   ,#'  ##            #'  '#       #'       ,# #          
            ##       ##  #######   ##           ,######,      #####,      #          
            '#,     ,#'  ##    ##  '#,     ,#' ,#      #,     #,   #      #          
             '#######'   ##     ##  '#######'  #'      '#     '####' #    #          



                #########################################################
                #                        -***-                          #
                #          Department of theory and spectroscopy        #
                #                                                       #
                #                      Frank Neese                      #
                #                                                       #
                #     Directorship, Architecture, Infrastructure        #
                #                    SHARK, DRIVERS                     #
                #        Core code/Algorithms in most modules           #
                #                                                       #
                #        Max Planck Institute fuer Kohlenforschung      #
                #                Kaiser Wilhelm Platz 1                 #
                #                 D-45470 Muelheim/Ruhr                 #
                #                      Germany                          #
                #                                                       #
                #                  All rights reserved                  #
                #                        -***-                          #
                #########################################################


                         Program Version 6.1.1  -  RELEASE   -
                                (GIT: $487d211c$)
                          ($2025-11-21 10:33:24 +0100$)
                                                                         
                                  - NO-DMRG VERSION -                    
                                                                         


 With contributions from (in alphabetic order):
[Max-Planck-Institut fuer Kohlenforschung]                               
  Daniel Aravena         : Magnetic Suceptibility                        
  Michael Atanasov       : Ab Initio Ligand Field Theory (pilot matlab implementation)
  Alexander A. Auer      : GIAO ZORA, VPT2 properties, NMR spectrum      
  Ute Becker             : All parallelization in ORCA, NUMFREQ, NUMCALC 
  Giovanni Bistoni       : ED, misc. LED, open-shell LED, HFLD           
  Dmytro Bykov           : pre 5.0 version of the SCF Hessian            
  Marcos Casanova-Páez   : Triplet and SCS-CIS(D). UHF-(DLPNO)-IP/EA/STEOM-CCSD. UHF-CVS-IP/STEOM-CCSD   
  Vijay G. Chilkuri      : MRCI spin determinant printing, contributions to CSF-ICE 
  Pauline Colinet        : FMM embedding                                 
  Dipayan Datta          : RHF DLPNO-CCSD density                        
  Achintya Kumar Dutta   : EOM-CC, STEOM-CC                              
  Nicolas Foglia         : Exact transition moments, OPA infrastructure, MCD improvements    
  Dmitry Ganyushin       : Spin-Orbit,Spin-Spin,Magnetic field MRCI      
  Miquel Garcia-Rates    : C-PCM and meta-GGA Hessian, CCSD/C-PCM, Gaussian charge scheme 
  Tiago L. C. Gouveia    : GS-ROHF, GS-ROCIS                             
  Yang Guo               : DLPNO-NEVPT2, F12-NEVPT2, CIM, IAO-localization        
  Andreas Hansen         : Spin unrestricted coupled pair/coupled cluster methods 
  Ingolf Harden          : AUTO-CI MPn and infrastructure                
  Benjamin Helmich-Paris : MC-RPA, TRAH-(SCF,CASSCF), AVAS, COSX integrals, SCF dyn. polar., MC-PDFT, srDFT 
  Lee Huntington         : MR-EOM, pCC                                   
  Robert Izsak           : Overlap fitted RIJCOSX, COSX-SCS-MP3, EOM     
  Riya Kayal             : Wick's Theorem for AUTO-CI, AUTO-CI UHF-CCSDT 
  Emily Kempfer          : AUTO-CI RHF CISDT and CCSDT, approximate NEVPT4
  Christian Kollmar      : KDIIS, OOCD, Brueckner-CCSD(T), CCSD density, CASPT2, CASPT2-K, improved NEVPT2 
  Axel Koslowski         : Symmetry handling                             
  Simone Kossmann        : meta-GGA functionals, TD-DFT gradient, OOMP2, (MP2 Hessian; deprecated post 5.0) 
  Lucas Lang             : DCDCAS, Hyperfine gauge corrections, ICE-SOC+SSC
  Marvin Lechner         : AUTO-CI (C++ implementation), FIC-MRCC        
  Spencer Leger          : CASSCF response                               
  Dagmar Lenk            : GEPOL surface, SMD, ORCA-2-JSON               
  Dimitrios Liakos       : Extrapolation schemes; Compound Job, Property file
  Dimitrios Manganas     : Further ROCIS development; embedding schemes. LFT, Crystal Embedding 
  Dimitrios Pantazis     : SARC Basis sets                               
  Anastasios Papadopoulos: AUTO-CI, single reference methods and gradients 
  Taras Petrenko         : pre 6.0 DFT Hessian and TD-DFT gradient,  ECA, NRVS 
  Petra Pikulova         : Analytic Raman intensities                    
  Peter Pinski           : DLPNO-MP2, DLPNO-MP2 Gradient                 
  Shashank Vittal Rao    : ES-AILFT, MagRelax                            
  Christoph Reimann      : Effective Core Potentials                     
  Marius Retegan         : Local ZFS, SOC                                
  Christoph Riplinger    : Optimizer, TS searches, QM/MM, DLPNO-CCSD(T), (RO)-DLPNO pert. Triples 
  Michael Roemelt        : Original ROCIS implementation, recursive CI coupling coefficients
  Masaaki Saitow         : Open-shell DLPNO-CCSD energy and density      
  Barbara Sandhoefer     : DKH picture change effects                    
  Yorick L. A. Schmerwitz: GMF and freeze-and-release deltaSCF, NEB S-IDPP initial path                    
  Kantharuban Sivalingam : CASSCF convergence/infrastructure, NEVPT2, NEVPT3, NEVPT4(SD), FIC-MRCI and CEPA variants
  Bernardo de Souza      : ESD, SOC TD-DFT                               
  Georgi L. Stoychev     : AutoAux, RI-MP2 NMR, DLPNO-MP2 response, X2C  
  Van Anh Tran           : RI-MP2 g-tensors                              
  Willem Van den Heuvel  : Paramagnetic NMR                              
  Zikuan Wang            : NOTCH, Electric field optimization            
  Frank Wennmohs         : Technical directorship and infrastructure     
  Hang Xu                : AUTO-CI-Response properties                   
                                                                         
[FACCTs GmbH]                                                            
  Markus Bursch, Nicolas Foglia, Miquel Garcia-Rates, Ingolf Harden, Hagen Neugebauer, Anastasios Papadopoulos, 
  Christoph Riplinger, Bernardo de Souza, Georgi L. Stoychev                                                    
                                                                 
  APM, various basis sets, CI-OPT, improved COSX, DLPNO-Multilevel,           
  DOCKER, DRACO, updates on ESD, Fragmentator, GOAT, IRC, LR-CPCM, L-BFGS, MBIS, meta-GGA TD-DFT gradient, ML-optimized integration grids, 
  MM, NACMEs, nearIR, NEB, NEB-TS, NL-DFT gradient (VV10), 2- and 3-layer-ONIOM, interface openCOSMO-RS, QMMM,   
  Crystal-QMMM, RESP, rigid body optimization, SF, symmetry and pop. for TD-DFT, various functionals, SOLVATOR                                   
                                                                         
[Other institutions]                                                     
  V. Asgeirsson          : NEB                                           
  Christoph Bannwarth    : sTDA-DFT, sTD-DFT, PBEh-3c, B97-3c, D3        
  Giovanni Bistoni       : ETS/NOCV, ADLD/ADEX, COVALED                  
  Martin Brehm           : Molecular dynamics                            
  Ronald Cardenas        : ETS/NOCV                                      
  Martina Colucci        : COVALED                                       
  Sebastian Ehlert       : rSCAN, r2SCAN, r2SCAN-3c, D4, dhf basis sets  
  Marvin Friede          : D4 for Fr, Ra, Ac-Lr                          
  Lars Goerigk           : TD-DFT with DH, B97 family of functionals     
  Stefan Grimme          : VdW corrections, initial TS optimization, DFT functionals, gCP, sTDA/sTD-DF 
  Waldemar Hujo          : DFT-NL                                        
  H. Jonsson             : NEB                                           
  Holger Kruse           : gCP                                           
  Marcel Mueller         : wB97X-3c, vDZP basis set                      
  Hagen Neugebauer       : wr2SCAN, Native XTB                           
  Gianluca Regni         : ADLD/ADEX                                     
  Tobias Risthaus        : pre 6.0 range-separated hybrid DFT and stability analysis
  Lukas Wittmann         : regularized MP2, r2SCAN double-hybrids, wr2SCAN        
                                                                         
We gratefully acknowledge several colleagues who have allowed us to      
interface, adapt or use parts of their codes:                            
  Ed Valeev, F. Pavosevic, A. Kumar             : LibInt (2-el integral package), F12 methods 
  Garnet Chan, S. Sharma, J. Yang, R. Olivares  : DMRG                   
  Ulf Ekstrom                                   : XCFun DFT Library      
  Mihaly Kallay                                 : mrcc  (arbitrary order and MRCC methods)
  Frank Weinhold                                : gennbo (NPA and NBO analysis)           
  Simon Mueller                                 : openCOSMO-RS                            
  Christopher J. Cramer and Donald G. Truhlar   : smd solvation model                     
  S Lehtola, MJT Oliveira, MAL Marques          : LibXC Library                           
  Liviu Ungur et al                             : ANISO software                          


 Your calculation uses the libint2 library for the computation of 2-el integrals
 For citations please refer to: http://libint.valeyev.net

 Your ORCA version has been built with support for libXC version: 7.0.0
 For citations please refer to: https://libxc.gitlab.io

 This ORCA versions uses:
   CBLAS   interface :  Fast vector & matrix operations
   LAPACKE interface :  Fast linear algebra routines
   SCALAPACK package :  Parallel linear algebra routines
   Shared memory     :  Shared parallel matrices
   BLAS/LAPACK       :  OpenBLAS 0.3.29  USE64BITINT DYNAMIC_ARCH NO_AFFINITY SkylakeX SINGLE_THREADED
        Core in use  :  SkylakeX
   Copyright (c) 2011-2014, The OpenBLAS Project


  ***********************************
  * Starting time: Sat Mar 28 19:38:39 2026
  * Host name:     f2e4424bbae6
  * Process ID:    54
  * Working dir.:  /kaggle/working
  ***********************************

NOTE: MaxCore=3000 MB was set to SCF,MP2,MDCI,CIPSI,MRCI,RASCI and CIS
      => If you want to overwrite this, your respective input block should be placed after the MaxCore statement
Your calculation utilizes the atom-pairwise dispersion correction
with the Becke-Johnson damping scheme (D3BJ)


Your calculation utilizes the SMD solvation module
Please cite in your paper:
Marenich, A. V.; Cramer, C. J.; Truhlar, D. G. J. Phys. Chem. B 2009, 113, 6378 

Warning: RI is on but no J-basis has been assigned. Assigning Def2/J (nothing to worry about!)
================================================================================

----- Orbital basis set information -----
Your calculation utilizes the basis: 6-31G(d,p)
   H-He, Li-Ne : W. J. Hehre, R. Ditchfield and J.A. Pople, J. Chem. Phys. 56, 2257 (1972).
                 Note: He and Ne are unpublished basis sets taken from the Gaussian program.
                 Note: Li and B from J. D. Dill and J. A. Pople, J. Chem. Phys. 62, 2921 (1975).
   Na - Ar     : M. M. Francl, W. J. Pietro, W. J. Hehre, J. S. Binkley, M. S. Gordon, 
                 D. J. DeFrees and J. A. Pople, J. Chem. Phys. 77, 3654 (1982).
   K - Zn      : V. A. Rassolov, J. A. Pople, M. A. Ratner, and T. L. Windus, J. Chem. Phys. 109, 1223 (1998).

----- AuxJ basis set information -----
Your calculation utilizes the auxiliary basis: def2/J
   H-Rn: F. Weigend, Phys. Chem. Chem. Phys. 8, 1057 (2006).
   Fr-Lr: K. Eichkorn, F. Weigend, O. Treutler, R. Ahlrichs; Theor. Chem. Acc. 97, 119 (1997).

================================================================================
                                        WARNINGS
                       Please study these warnings very carefully!
================================================================================


WARNING: Geometry Optimization
  ===> : Switching off AutoStart
         For restart on a previous wavefunction, please use MOREAD

================================================================================
                                       INPUT FILE
================================================================================
NAME = /kaggle/working/Phe-F3-1/Phe-F3_InterFrag.inp
|  1> 
|  2> !RKS B3LYP 6-31G(d,p) TightSCF Opt D3BJ
|  3>  
|  4> %pal nprocs 2 end
|  5> %maxcore 3000
|  6> 
|  7> %cpcm
|  8>   smd true
|  9>   SMDsolvent "WATER"
| 10>   end
| 11> 
| 12> %scf
| 13>   MaxIter 1000
| 14>   SOSCF Start 0.00033
| 15>   end
| 16> end
| 17> 
| 18> %output
| 19>   PrintLevel Normal
| 20>   Print[ P_OrbEn ] 2        # print ALL orbital energies (not just up to LUMO+9) :contentReference[oaicite:10]{index=10}
| 21>   XYZFile true              # writes basename.xyz (handy for reuse) :contentReference[oaicite:11]{index=11}
| 22>   end
| 23> 
| 24> *xyz 0 1
| 25> F        2.990500000      2.058600000     -0.631700000
| 26> F        2.075300000     -2.466200000      0.424400000
| 27> F        3.809900000     -0.544000000     -0.453800000
| 28> O       -2.160200000     -1.290600000     -1.364100000
| 29> O       -3.886700000     -1.146600000      0.100200000
| 30> N       -3.607100000      1.583400000      0.099300000
| 31> C       -1.439900000      0.854100000      0.986200000
| 32> C       -2.423200000      0.778300000     -0.192300000
| 33> C       -0.028300000      0.478000000      0.598500000
| 34> C        0.370700000     -0.844600000      0.694000000
| 35> C        0.837800000      1.463800000      0.155600000
| 36> C       -2.911500000     -0.638800000     -0.438700000
| 37> C        2.140600000      1.117000000     -0.202200000
| 38> C        1.673500000     -1.191500000      0.336400000
| 39> C        2.558500000     -0.210900000     -0.111800000
| 40> H       -1.774300000      0.214100000      1.814300000
| 41> H       -1.414500000      1.872900000      1.398000000
| 42> H       -1.981300000      1.164900000     -1.118000000
| 43> H       -0.309000000     -1.615600000      1.044300000
| 44> H        0.521100000      2.499900000      0.079500000
| 45> H       -3.334400000      2.557500000      0.227200000
| 46> H       -4.014800000      1.290900000      0.987200000
| 47> H       -2.489200000     -2.200300000     -1.527000000
| 48> *
| 49> 
| 50>                          ****END OF INPUT****
================================================================================

                       *****************************
                       * Geometry Optimization Run *
                       *****************************

Geometry optimization settings:
Update method            Update   .... BFGS
Choice of coordinates    CoordSys .... (2022) Redundant Internals
Initial Hessian          InHess   .... Almloef's Model
Max. no of cycles        MaxIter  .... 69

Convergence Tolerances:
Energy Change            TolE     ....  5.0000e-06 Eh
Max. Gradient            TolMAXG  ....  3.0000e-04 Eh/bohr
RMS Gradient             TolRMSG  ....  1.0000e-04 Eh/bohr
Max. Displacement        TolMAXD  ....  4.0000e-03 bohr
RMS Displacement         TolRMSD  ....  2.0000e-03 bohr
Strict Convergence                .... False

------------------------------------------------------------------------------
                        ORCA OPTIMIZATION COORDINATE SETUP
------------------------------------------------------------------------------

The optimization will be done in redundant internal coordinates (2022)
Making redundant internal coordinates   ...  (2022 redundants) done
Evaluating the initial hessian          ...  (Almloef) done
Evaluating the coordinates              ...  done
Calculating the B-matrix                .... done
Calculating the G-matrix                .... done
The number of degrees of freedom        ....  107

    -----------------------------------------------------------------
                    Redundant Internal Coordinates


    -----------------------------------------------------------------
         Definition                    Initial Value    Approx d2E/dq
    -----------------------------------------------------------------
      1. B(C   7,C   6)                  1.5367         0.364475   
      2. B(C   7,N   5)                  1.4611         0.430951   
      3. B(C   8,C   6)                  1.5114         0.399970   
      4. B(C   9,C   8)                  1.3848         0.636913   
      5. B(C  10,C   8)                  1.3850         0.636492   
      6. B(C  11,O   4)                  1.2245         1.027999   
      7. B(C  11,O   3)                  1.3586         0.628132   
      8. B(C  11,C   7)                  1.5190         0.388998   
      9. B(C  12,C  10)                  1.3948         0.613785   
     10. B(C  12,F   0)                  1.3392         0.626675   
     11. B(C  13,C   9)                  1.3948         0.613845   
     12. B(C  13,F   1)                  1.3394         0.626128   
     13. B(C  14,C  13)                  1.3949         0.613700   
     14. B(C  14,C  12)                  1.3950         0.613339   
     15. B(C  14,F   2)                  1.3394         0.626236   
     16. B(H  15,C   6)                  1.0987         0.348755   
     17. B(H  16,C   6)                  1.0992         0.348169   
     18. B(H  17,C   7)                  1.0962         0.351990   
     19. B(H  18,C   9)                  1.0859         0.365587   
     20. B(H  19,C  10)                  1.0861         0.365309   
     21. B(H  20,N   5)                  1.0196         0.417706   
     22. B(H  21,N   5)                  1.0199         0.417294   
     23. B(H  22,O   3)                  0.9810         0.481378   
     24. A(C  11,O   3,H  22)          111.8734         0.366070   
     25. A(H  20,N   5,H  21)          105.7660         0.299815   
     26. A(C   7,N   5,H  20)          109.5573         0.335382   
     27. A(C   7,N   5,H  21)          109.8542         0.335327   
     28. A(C   7,C   6,H  16)          110.3541         0.321231   
     29. A(C   8,C   6,H  15)          109.4292         0.326258   
     30. A(C   7,C   6,C   8)          112.8687         0.366073   
     31. A(H  15,C   6,H  16)          105.3414         0.287860   
     32. A(C   8,C   6,H  16)          107.7680         0.326168   
     33. A(C   7,C   6,H  15)          110.7645         0.321320   
     34. A(N   5,C   7,C  11)          106.6162         0.372622   
     35. A(N   5,C   7,H  17)          107.5082         0.328813   
     36. A(C  11,C   7,H  17)          108.7611         0.325262   
     37. A(N   5,C   7,C   6)          109.7697         0.368472   
     38. A(C   6,C   7,C  11)          112.0932         0.364334   
     39. A(C   6,C   7,H  17)          111.8559         0.321806   
     40. A(C   6,C   8,C   9)          119.2803         0.403385   
     41. A(C   9,C   8,C  10)          121.4465         0.438243   
     42. A(C   6,C   8,C  10)          119.2732         0.403337   
     43. A(C   8,C   9,H  18)          121.3346         0.355432   
     44. A(C  13,C   9,H  18)          119.3911         0.353216   
     45. A(C   8,C   9,C  13)          119.2740         0.435391   
     46. A(C   8,C  10,C  12)          119.2853         0.435332   
     47. A(C  12,C  10,H  19)          119.4437         0.353165   
     48. A(C   8,C  10,H  19)          121.2709         0.355346   
     49. A(O   3,C  11,O   4)          122.7696         0.470689   
     50. A(O   4,C  11,C   7)          124.8571         0.434300   
     51. A(O   3,C  11,C   7)          112.3531         0.397869   
     52. A(F   0,C  12,C  14)          119.9964         0.429308   
     53. A(F   0,C  12,C  10)          120.0143         0.429364   
     54. A(C  10,C  12,C  14)          119.9892         0.432439   
     55. A(F   1,C  13,C   9)          120.0024         0.429305   
     56. A(C   9,C  13,C  14)          120.0098         0.432493   
     57. A(F   1,C  13,C  14)          119.9878         0.429286   
     58. A(C  12,C  14,C  13)          119.9953         0.432429   
     59. A(F   2,C  14,C  13)          120.0001         0.429300   
     60. A(F   2,C  14,C  12)          120.0045         0.429254   
     61. D(C  11,C   7,C   6,C   8)     81.9409         0.010640   
     62. D(C  11,C   7,N   5,H  21)     67.0133         0.015834   
     63. D(C  11,C   7,C   6,H  15)    -41.1531         0.010640   
     64. D(C  11,C   7,C   6,H  16)   -157.4136         0.010640   
     65. D(N   5,C   7,C   6,H  15)     77.1312         0.010640   
     66. D(C  11,C   7,N   5,H  20)   -177.2114         0.015834   
     67. D(N   5,C   7,C   6,H  16)    -39.1293         0.010640   
     68. D(C   6,C   7,N   5,H  20)     61.1642         0.015834   
     69. D(N   5,C   7,C   6,C   8)   -159.7748         0.010640   
     70. D(H  17,C   7,N   5,H  20)    -60.7189         0.015834   
     71. D(C   6,C   7,N   5,H  21)    -54.6111         0.015834   
     72. D(C   9,C   8,C   6,H  16)    147.8837         0.011872   
     73. D(C   9,C   8,C   6,H  15)     33.8276         0.011872   
     74. D(C   9,C   8,C   6,C   7)    -90.0056         0.011872   
     75. D(C  10,C   8,C   6,C   7)     89.9992         0.011872   
     76. D(C  10,C   8,C   6,H  15)   -146.1675         0.011872   
     77. D(H  18,C   9,C   8,C  10)    179.8161         0.028166   
     78. D(H  18,C   9,C   8,C   6)     -0.1789         0.028166   
     79. D(C  13,C   9,C   8,C  10)      0.0063         0.028166   
     80. D(C  13,C   9,C   8,C   6)   -179.9888         0.028166   
     81. D(H  19,C  10,C   8,C   9)    179.8487         0.028127   
     82. D(C  12,C  10,C   8,C   9)      0.0018         0.028127   
     83. D(C  12,C  10,C   8,C   6)    179.9969         0.028127   
     84. D(H  19,C  10,C   8,C   6)     -0.1563         0.028127   
     85. D(O   4,C  11,C   7,N   5)    -31.8271         0.011261   
     86. D(O   3,C  11,C   7,H  17)     30.9201         0.011261   
     87. D(O   3,C  11,C   7,C   6)    -93.2879         0.011261   
     88. D(O   3,C  11,C   7,N   5)    146.5739         0.011261   
     89. D(C   7,C  11,O   3,H  22)   -179.1948         0.029003   
     90. D(O   4,C  11,C   7,C   6)     88.3110         0.011261   
     91. D(O   4,C  11,O   3,H  22)     -0.7553         0.029003   
     92. D(C  14,C  12,C  10,H  19)   -179.8535         0.026037   
     93. D(C  14,C  12,C  10,C   8)     -0.0038         0.026037   
     94. D(F   0,C  12,C  10,H  19)      0.1863         0.026037   
     95. D(F   0,C  12,C  10,C   8)   -179.9641         0.026037   
     96. D(C  14,C  13,C   9,H  18)   -179.8260         0.026043   
     97. D(C  14,C  13,C   9,C   8)     -0.0124         0.026043   
     98. D(F   1,C  13,C   9,H  18)      0.1182         0.026043   
     99. D(F   1,C  13,C   9,C   8)    179.9318         0.026043   
    100. D(C  12,C  14,C  13,F   1)   -179.9337         0.026030   
    101. D(F   2,C  14,C  13,C   9)    179.9298         0.026030   
    102. D(F   2,C  14,C  13,F   1)     -0.0144         0.026030   
    103. D(C  13,C  14,C  12,C  10)     -0.0023         0.025997   
    104. D(C  13,C  14,C  12,F   0)    179.9579         0.025997   
    105. D(F   2,C  14,C  12,C  10)   -179.9216         0.025997   
    106. D(C  12,C  14,C  13,C   9)      0.0105         0.026030   
    107. D(F   2,C  14,C  12,F   0)      0.0386         0.025997   
    -----------------------------------------------------------------

Number of atoms                         .... 23
Number of degrees of freedom            .... 107


         *************************************************************
         *                GEOMETRY OPTIMIZATION CYCLE   1            *
         *************************************************************
---------------------------------
CARTESIAN COORDINATES (ANGSTROEM)
---------------------------------
  F      2.990500    2.058600   -0.631700
  F      2.075300   -2.466200    0.424400
  F      3.809900   -0.544000   -0.453800
  O     -2.160200   -1.290600   -1.364100
  O     -3.886700   -1.146600    0.100200
  N     -3.607100    1.583400    0.099300
  C     -1.439900    0.854100    0.986200
  C     -2.423200    0.778300   -0.192300
  C     -0.028300    0.478000    0.598500
  C      0.370700   -0.844600    0.694000
  C      0.837800    1.463800    0.155600
  C     -2.911500   -0.638800   -0.438700
  C      2.140600    1.117000   -0.202200
  C      1.673500   -1.191500    0.336400
  C      2.558500   -0.210900   -0.111800
  H     -1.774300    0.214100    1.814300
  H     -1.414500    1.872900    1.398000
  H     -1.981300    1.164900   -1.118000
  H     -0.309000   -1.615600    1.044300
  H      0.521100    2.499900    0.079500
  H     -3.334400    2.557500    0.227200
  H     -4.014800    1.290900    0.987200
  H     -2.489200   -2.200300   -1.527000

----------------------------
CARTESIAN COORDINATES (A.U.)
----------------------------
  NO LB      ZA    FRAG     MASS         X           Y           Z
   0 F     9.0000    0    18.998    5.651226    3.890190   -1.193740
   1 F     9.0000    0    18.998    3.921749   -4.660443    0.802000
   2 F     9.0000    0    18.998    7.199668   -1.028011   -0.857558
   3 O     8.0000    0    15.999   -4.082186   -2.438881   -2.577775
   4 O     8.0000    0    15.999   -7.344799   -2.166760    0.189351
   5 N     7.0000    0    14.007   -6.816431    2.992192    0.187650
   6 C     6.0000    0    12.011   -2.721017    1.614015    1.863648
   7 C     6.0000    0    12.011   -4.579184    1.470774   -0.363394
   8 C     6.0000    0    12.011   -0.053479    0.903289    1.131001
   9 C     6.0000    0    12.011    0.700521   -1.596063    1.311470
  10 C     6.0000    0    12.011    1.583213    2.766181    0.294041
  11 C     6.0000    0    12.011   -5.501938   -1.207157   -0.829023
  12 C     6.0000    0    12.011    4.045148    2.110824   -0.382103
  13 C     6.0000    0    12.011    3.162457   -2.251609    0.635704
  14 C     6.0000    0    12.011    4.834864   -0.398543   -0.211271
  15 H     1.0000    0     1.008   -3.352941    0.404590    3.428530
  16 H     1.0000    0     1.008   -2.673018    3.539268    2.641837
  17 H     1.0000    0     1.008   -3.744114    2.201342   -2.112714
  18 H     1.0000    0     1.008   -0.583925   -3.053042    1.973441
  19 H     1.0000    0     1.008    0.984736    4.724126    0.150233
  20 H     1.0000    0     1.008   -6.301103    4.832975    0.429346
  21 H     1.0000    0     1.008   -7.586872    2.439447    1.865538
  22 H     1.0000    0     1.008   -4.703906   -4.157964   -2.885612

--------------------------------
INTERNAL COORDINATES (ANGSTROEM)
--------------------------------
 F      0   0   0     0.000000000000     0.00000000     0.00000000
 F      1   0   0     4.735689315190     0.00000000     0.00000000
 F      2   1   0     2.734030950812    30.00299788     0.00000000
 O      2   1   3     4.745548214906    81.47403057   216.12818653
 O      4   2   1     2.268416350673   116.85567427   250.30347662
 N      5   4   2     2.744280774629    89.16308584   100.47792317
 C      6   5   4     2.452595755521    78.11776544   298.10809895
 C      6   5   4     1.461107723612    62.25529086   332.83322528
 C      7   6   5     1.511415581500   143.75667969    91.36256463
 C      9   7   6     1.384771464900   119.28030335   250.85758883
 C      9   7   6     1.384951717570   119.27319751    70.86242455
 C      5   4   2     1.224454609204    30.23751628    83.36034936
 C      1   2   3     1.339182892663    30.00575015   179.93934099
 C      2   1   3     1.339420520225    30.00534588   180.08204436
 C      3   2   1     1.339373573728    60.00372865   359.94528042
 H      7   6   5     1.098714234913   100.18469686   306.60447677
 H      7   6   5     1.099171433399    83.12417260   202.18086562
 H      8   6   5     1.096200556468   107.50815021   129.09368557
 H     10   9   7     1.085883594130   121.33464389   359.82107558
 H     11   9   7     1.086090838742   121.27085829   359.84372976
 H      6   5   4     1.019605075507   167.85189030   283.09166651
 H      6   5   4     1.019873497057    70.95429674   206.84919672
 H      4   2   1     0.980984964207    97.59612778   162.21390351

---------------------------
INTERNAL COORDINATES (A.U.)
---------------------------
 F      0   0   0     0.000000000000     0.00000000     0.00000000
 F      1   0   0     8.949155861045     0.00000000     0.00000000
 F      2   1   0     5.166569738700    30.00299788     0.00000000
 O      2   1   3     8.967786481492    81.47403057   216.12818653
 O      4   2   1     4.286685660481   116.85567427   250.30347662
 N      5   4   2     5.185939098635    89.16308584   100.47792317
 C      6   5   4     4.634734295153    78.11776544   298.10809895
 C      6   5   4     2.761093449785    62.25529086   332.83322528
 C      7   6   5     2.856161523576   143.75667969    91.36256463
 C      9   7   6     2.616838826729   119.28030335   250.85758883
 C      9   7   6     2.617179454911   119.27319751    70.86242455
 C      5   4   2     2.313883874812    30.23751628    83.36034936
 C      1   2   3     2.530688910365    30.00575015   179.93934099
 C      2   1   3     2.531137961380    30.00534588   180.08204436
 C      3   2   1     2.531049245357    60.00372865   359.94528042
 H      7   6   5     2.076269003426   100.18469686   306.60447677
 H      7   6   5     2.077132983353    83.12417260   202.18086562
 H      8   6   5     2.071518839576   107.50815021   129.09368557
 H     10   9   7     2.052022606223   121.33464389   359.82107558
 H     11   9   7     2.052414241784   121.27085829   359.84372976
 H      6   5   4     1.926774357465   167.85189030   283.09166651
 H      6   5   4     1.927281600683    70.95429674   206.84919672
 H      4   2   1     1.853792923846    97.59612778   162.21390351

---------------------
BASIS SET INFORMATION
---------------------
There are 5 groups of distinct atoms

 Group   1 Type F   : 10s4p1d contracted to 3s2p1d pattern {631/31/1}
 Group   2 Type O   : 10s4p1d contracted to 3s2p1d pattern {631/31/1}
 Group   3 Type N   : 10s4p1d contracted to 3s2p1d pattern {631/31/1}
 Group   4 Type C   : 10s4p1d contracted to 3s2p1d pattern {631/31/1}
 Group   5 Type H   : 4s1p contracted to 2s1p pattern {31/1}

Atom   0F    basis set group =>   1
Atom   1F    basis set group =>   1
Atom   2F    basis set group =>   1
Atom   3O    basis set group =>   2
Atom   4O    basis set group =>   2
Atom   5N    basis set group =>   3
Atom   6C    basis set group =>   4
Atom   7C    basis set group =>   4
Atom   8C    basis set group =>   4
Atom   9C    basis set group =>   4
Atom  10C    basis set group =>   4
Atom  11C    basis set group =>   4
Atom  12C    basis set group =>   4
Atom  13C    basis set group =>   4
Atom  14C    basis set group =>   4
Atom  15H    basis set group =>   5
Atom  16H    basis set group =>   5
Atom  17H    basis set group =>   5
Atom  18H    basis set group =>   5
Atom  19H    basis set group =>   5
Atom  20H    basis set group =>   5
Atom  21H    basis set group =>   5
Atom  22H    basis set group =>   5
---------------------------------
AUXILIARY/J BASIS SET INFORMATION
---------------------------------
There are 5 groups of distinct atoms

 Group   1 Type F   : 12s5p4d2f1g contracted to 6s4p3d1f1g pattern {711111/2111/211/2/1}
 Group   2 Type O   : 12s5p4d2f1g contracted to 6s4p3d1f1g pattern {711111/2111/211/2/1}
 Group   3 Type N   : 12s5p4d2f1g contracted to 6s4p3d1f1g pattern {711111/2111/211/2/1}
 Group   4 Type C   : 12s5p4d2f1g contracted to 6s4p3d1f1g pattern {711111/2111/211/2/1}
 Group   5 Type H   : 5s2p1d contracted to 3s1p1d pattern {311/2/1}

Atom   0F    basis set group =>   1
Atom   1F    basis set group =>   1
Atom   2F    basis set group =>   1
Atom   3O    basis set group =>   2
Atom   4O    basis set group =>   2
Atom   5N    basis set group =>   3
Atom   6C    basis set group =>   4
Atom   7C    basis set group =>   4
Atom   8C    basis set group =>   4
Atom   9C    basis set group =>   4
Atom  10C    basis set group =>   4
Atom  11C    basis set group =>   4
Atom  12C    basis set group =>   4
Atom  13C    basis set group =>   4
Atom  14C    basis set group =>   4
Atom  15H    basis set group =>   5
Atom  16H    basis set group =>   5
Atom  17H    basis set group =>   5
Atom  18H    basis set group =>   5
Atom  19H    basis set group =>   5
Atom  20H    basis set group =>   5
Atom  21H    basis set group =>   5
Atom  22H    basis set group =>   5


           ************************************************************
           *        Program running with 2 parallel MPI-processes     *
           *              working on a common directory               *
           ************************************************************
------------------------------------------------------------------------------
                             ORCA STARTUP CALCULATIONS
                           -- RI-GTO INTEGRALS CHOSEN --
------------------------------------------------------------------------------
------------------------------------------------------------------------------
                   ___                                                        
                  /   \      - P O W E R E D   B Y -                         
                 /     \                                                     
                 |  |  |   _    _      __       _____    __    __             
                 |  |  |  | |  | |    /  \     |  _  \  |  |  /  |          
                  \  \/   | |  | |   /    \    | | | |  |  | /  /          
                 / \  \   | |__| |  /  /\  \   | |_| |  |  |/  /          
                |  |  |   |  __  | /  /__\  \  |    /   |      \           
                |  |  |   | |  | | |   __   |  |    \   |  |\   \          
                \     /   | |  | | |  |  |  |  | |\  \  |  | \   \       
                 \___/    |_|  |_| |__|  |__|  |_| \__\ |__|  \__/        
                                                                              
                      - O R C A' S   B I G   F R I E N D -                    
                                      &                                       
                       - I N T E G R A L  F E E D E R -                       
                                                                              
 v1 FN, 2020, v2 2021, v3 2022-2024                                           
------------------------------------------------------------------------------


----------------------
SHARK INTEGRAL PACKAGE
----------------------

Number of atoms                             ...     23
Number of basis functions                   ...    250
Number of shells                            ...    114
Maximum angular momentum                    ...      2
Integral batch strategy                     ... SHARK/LIBINT Hybrid
RI-J (if used) integral strategy            ... SPLIT-RIJ (Revised 2003 algorithm where possible)
Printlevel                                  ...      1
Contraction scheme used                     ... SEGMENTED contraction
Prescreening option                         ... SCHWARTZ
   Thresh                                   ... 2.500e-11
   Tcut                                     ... 2.500e-12
   Tpresel                                  ... 2.500e-12 
Coulomb Range Separation                    ... NOT USED
Exchange Range Separation                   ... NOT USED
Multipole approximations                    ... NOT USED
Finite Nucleus Model                        ... NOT USED
CABS basis                                  ... NOT available
Auxiliary Coulomb fitting basis             ... AVAILABLE
   # of basis functions in Aux-J            ...    823
   # of shells in Aux-J                     ...    265
   Maximum angular momentum in Aux-J        ...      4
Auxiliary J/K fitting basis                 ... NOT available
Auxiliary Correlation fitting basis         ... NOT available
Auxiliary 'external' fitting basis          ... NOT available

Checking pre-screening integrals            ... done (  0.0 sec) Dimension = 114
   => SHARK Basis and OBASIS are compatible. Storing Pre-screening
Shell pair information
Shell pair cut-off parameter TPreSel        ...   2.5e-12
Total number of shell pairs                 ...      6555
Shell pairs after pre-screening             ...      5219
Total number of primitive shell pairs       ...     35584
Primitive shell pairs kept                  ...     16942
          la=0 lb=0:   1475 shell pairs
          la=1 lb=0:   1877 shell pairs
          la=1 lb=1:    629 shell pairs
          la=2 lb=0:    692 shell pairs
          la=2 lb=1:    455 shell pairs
          la=2 lb=2:     91 shell pairs

Checking whether 4 symmetric matrices of dimension 250 fit in memory
:Max Core in MB      =   3000.00
 MB in use           =     10.61
 MB left             =   2989.39
 MB needed           =      0.96
 Data fit in memory  = YES
Calculating RI/J V-Matrix + Cholesky decomp.... done (  0.1 sec)
Calculating Nuclear repulsion               ... done (  0.0 sec) ENN=   1002.273870371890 Eh

Diagonalization of the overlap matrix:
Smallest eigenvalue                        ... 5.091e-04
Time for diagonalization                   ...    0.009 sec
Threshold for overlap eigenvalues          ... 1.000e-07
Number of eigenvalues below threshold      ... 0
Time for construction of square roots      ...    0.003 sec
Total time needed                          ...    0.014 sec

-------------------
DFT GRID GENERATION
-------------------

General Integration Accuracy     IntAcc      ... 4.388
Radial Grid Type                 RadialGrid  ... OptM3 with GC (2021)
Angular Grid (max. ang.)         AngularGrid ... 4 (Lebedev-302)
Angular grid pruning method      GridPruning ... 4 (adaptive)
Weight generation scheme         WeightScheme... mBecke (2022)
Basis function cutoff            BFCut       ... 1.0000e-11
Integration weight cutoff        WCut        ... 1.0000e-14
Partially contracted basis set               ... off
Rotationally invariant grid construction     ... off
Angular grids for H and He will be reduced by one unit

Total number of grid points                  ...   115863
Total number of batches                      ...     1822
Average number of points per batch           ...       63
Average number of grid points per atom       ...     5038

--------------------
COSX GRID GENERATION
--------------------

GRIDX 1
-------
General Integration Accuracy     IntAcc      ... 3.816
Radial Grid Type                 RadialGrid  ... OptM3 with GC (2021)
Angular Grid (max. ang.)         AngularGrid ... 1 (Lebedev-50)
Angular grid pruning method      GridPruning ... 4 (adaptive)
Weight generation scheme         WeightScheme... mBecke (2022)
Basis function cutoff            BFCut       ... 1.0000e-11
Integration weight cutoff        WCut        ... 1.0000e-14
Partially contracted basis set               ... on
Rotationally invariant grid construction     ... off
Angular grids for H and He will be reduced by one unit

Total number of grid points                  ...    14680
Total number of batches                      ...      128
Average number of points per batch           ...      114
Average number of grid points per atom       ...      638
UseSFitting                                  ... on

GRIDX 2
-------
General Integration Accuracy     IntAcc      ... 4.020
Radial Grid Type                 RadialGrid  ... OptM3 with GC (2021)
Angular Grid (max. ang.)         AngularGrid ... 2 (Lebedev-110)
Angular grid pruning method      GridPruning ... 4 (adaptive)
Weight generation scheme         WeightScheme... mBecke (2022)
Basis function cutoff            BFCut       ... 1.0000e-11
Integration weight cutoff        WCut        ... 1.0000e-14
Partially contracted basis set               ... on
Rotationally invariant grid construction     ... off
Angular grids for H and He will be reduced by one unit

Total number of grid points                  ...    32816
Total number of batches                      ...      268
Average number of points per batch           ...      122
Average number of grid points per atom       ...     1427
UseSFitting                                  ... on

GRIDX 3
-------
General Integration Accuracy     IntAcc      ... 4.338
Radial Grid Type                 RadialGrid  ... OptM3 with GC (2021)
Angular Grid (max. ang.)         AngularGrid ... 3 (Lebedev-194)
Angular grid pruning method      GridPruning ... 4 (adaptive)
Weight generation scheme         WeightScheme... mBecke (2022)
Basis function cutoff            BFCut       ... 1.0000e-11
Integration weight cutoff        WCut        ... 1.0000e-14
Partially contracted basis set               ... on
Rotationally invariant grid construction     ... off
Angular grids for H and He will be reduced by one unit

Total number of grid points                  ...    72183
Total number of batches                      ...      576
Average number of points per batch           ...      125
Average number of grid points per atom       ...     3138
UseSFitting                                  ... on
Grids setup in   2.6 sec
Initializing property integral containers    ... done (  0.0 sec)

SHARK setup successfully completed in   3.7 seconds

Maximum memory used throughout the entire STARTUP-calculation: 39.5 MB


           ************************************************************
           *        Program running with 2 parallel MPI-processes     *
           *              working on a common directory               *
           ************************************************************
-------------------------------------------------------------------------------
                                 ORCA GUESS
                   Start orbitals & Density for SCF / CASSCF
-------------------------------------------------------------------------------

------------
SCF SETTINGS
------------
Hamiltonian:
 Density Functional     Method          .... DFT(GTOs)
 Exchange Functional    Exchange        .... B88
   X-Alpha parameter    XAlpha          ....  0.666667
   Becke's b parameter  XBeta           ....  0.004200
 Correlation Functional Correlation     .... LYP
 LDA part of GGA corr.  LDAOpt          .... VWN-5
 Gradients option       PostSCFGGA      .... off
 Hybrid DFT is turned on
   Fraction HF Exchange ScalHFX         ....  0.200000
   Scaling of DF-GGA-X  ScalDFX         ....  0.720000
   Scaling of DF-GGA-C  ScalDFC         ....  0.810000
   Scaling of DF-LDA-C  ScalLDAC        ....  1.000000
   Perturbative correction              ....  0.000000
   NL short-range parameter             ....  4.800000
 RI-approximation to the Coulomb term is turned on
   Number of AuxJ basis functions       .... 823
   RIJ-COSX (HFX calculated with COS-X)).... on


General Settings:
 Integral files         IntName         .... /kaggle/working/Phe-F3-1/Phe-F3_InterFrag
 Hartree-Fock type      HFTyp           .... RHF
 Total Charge           Charge          ....    0
 Multiplicity           Mult            ....    1
 Number of Electrons    NEL             ....  112
 Basis Dimension        Dim             ....  250
 Nuclear Repulsion      ENuc            ....   1002.2738703719 Eh

Convergence Acceleration:
 AO-DIIS                CNVDIIS         .... on
   Start iteration      DIISMaxIt       ....    12
   Startup error        DIISStart       ....  0.200000
   # of expansion vecs  DIISMaxEq       ....     5
   Bias factor          DIISBfac        ....   1.050
   Max. coefficient     DIISMaxC        ....  10.000
 MO-DIIS                CNVKDIIS        .... off
 Trust-Rad. Augm. Hess. CNVTRAH         .... auto
   Auto Start mean grad. ratio tolernc. ....  1.125000
   Auto Start start iteration           ....    50
   Auto Start num. interpolation iter.  ....    10
   Max. Number of Micro iterations      ....    24
   Max. Number of Macro iterations      .... Maxiter - #DIIS iter
   Number of Davidson start vectors     ....     2
   Converg. threshold    (grad. norm)   ....   1.000e-05
   Grad. Scal. Fac. for Micro threshold ....   0.100
   Minimum threshold for Micro iter.    ....   1.000e-02
   NR start threshold (gradient norm)   ....   1.000e-04
   Initial trust radius                 ....   0.400
   Minimum AH scaling param. (alpha)    ....   1.000
   Maximum AH scaling param. (alpha)    .... 1000.000
   Quad. conv. algorithm                .... NR
   White noise on init. David. guess    .... on
   Maximum white noise                  ....   0.010
   Pseudo random numbers                .... off
   Inactive MOs                         .... canonical
   Orbital update algorithm             .... Taylor
   Preconditioner                       .... Diag
   Full preconditioner red. dimension   ....   250
 SOSCF                 CNVSOSCF           .... on
   Start iteration     SOSCFMaxIt         ....   150
   Startup grad/error  SOSCFStart         ....  0.000330
   Hessian update      SOSCFHessUp        .... L-BFGS
   Autom. constraints  SOSCFAutoConstrain .... off
 Level Shifting         CNVShift        .... on
   Level shift para.    LevelShift      ....    0.2500
   Turn off err/grad.   ShiftErr        ....    0.0010
 Zerner damping         CNVZerner       .... off
 Static damping         CNVDamp         .... on
   Fraction old density DampFac         ....    0.7000
   Max. Damping (<1)    DampMax         ....    0.9800
   Min. Damping (>=0)   DampMin         ....    0.0000
   Turn off err/grad.   DampErr         ....    0.1000

SCF Procedure:
 Maximum # iterations   MaxIter         ....  1000
 SCF integral mode      SCFMode         .... Direct
   Integral package                     .... SHARK and LIBINT hybrid scheme
 Reset frequency        DirectResetFreq ....    20
 Integral Threshold     Thresh          ....  2.500e-11 Eh
 Primitive CutOff       TCut            ....  2.500e-12 Eh

Convergence Tolerance:
 Convergence Check Mode ConvCheckMode   .... Total+1el-Energy
 Convergence forced     ConvForced      .... 0
 Energy Change          TolE            ....  1.000e-08 Eh
 1-El. energy change                    ....  1.000e-05 Eh
 Orbital Gradient       TolG            ....  1.000e-05
 Orbital Rotation angle TolX            ....  1.000e-05
 DIIS Error             TolErr          ....  5.000e-07

------------------------------
INITIAL GUESS: MODEL POTENTIAL
------------------------------
Loading Hartree-Fock densities                     ... done
Calculating cut-offs                               ... done
Initializing the effective Hamiltonian             ... done
Setting up the integral package (SHARK)            ... done
Starting the Coulomb interaction                   ... done (   0.3 sec)
Making the grid                                    ... done (   0.4 sec)
Mapping shells                                     ... done
Starting the XC term evaluation                    ... done (   0.2 sec)
  promolecular density results
     # of electrons  =    111.996205595
     EX              =   -101.809943258
     EC              =     -3.960210045
     EX+EC           =   -105.770153303
Transforming the Hamiltonian                       ... done (   0.0 sec)
Diagonalizing the Hamiltonian                      ... done (   0.0 sec)
Back transforming the eigenvectors                 ... done (   0.0 sec)
Now organizing SCF variables                       ... done
                      ------------------
                      INITIAL GUESS DONE (   1.0 sec)
                      ------------------
             **** ENERGY FILE WAS UPDATED (/kaggle/working/Phe-F3-1/Phe-F3_InterFrag.en.tmp) ****
Finished Guess after   1.3 sec
Maximum memory used throughout the entire GUESS-calculation: 15.7 MB


           ************************************************************
           *        Program running with 2 parallel MPI-processes     *
           *              working on a common directory               *
           ************************************************************

-------------------------------------------------------------------------------------------
                                      ORCA LEAN-SCF
                              memory conserving SCF solver
-------------------------------------------------------------------------------------------

--------------------
CPCM SOLVATION MODEL
--------------------
CPCM parameters:
  Epsilon                                         ...      78.3550
  Refrac                                          ...       1.3328
  Rsolv                                           ...       1.3000
  Surface type                                    ... GAUSSIAN VDW
  Discretization scheme                           ... Constant charge density
    Threshold for H atoms                         ...       5.0000 (charges/Ang^2)
    Threshold for non-H atoms                     ...       5.0000 (charges/Ang^2)
  Epsilon function type                           ...         CPCM
Solvent:                                          ... WATER
SMD-CDS solvent descriptors:
  Soln                                            ...       1.3328
  Soln25                                          ...       1.3323
  Sola                                            ...       0.0000
  Solb                                            ...       0.0000
  Solg                                            ...       0.0000
  Solc                                            ...       0.0000
  Solh                                            ...       0.0000
Radii:
  Scheme                                          ... Element-dependent radii
  Radius for F  used is    3.2692 Bohr (=   1.7300 Ang.)
  Radius for O  used is    2.8724 Bohr (=   1.5200 Ang.)
  Radius for N  used is    3.5716 Bohr (=   1.8900 Ang.)
  Radius for C  used is    3.4960 Bohr (=   1.8500 Ang.)
  Radius for H  used is    2.2677 Bohr (=   1.2000 Ang.)
Calculating surface                               ...        done! (  0.0s)
Cavity surface points                             ...         1886
Cavity Volume                                     ...    1343.5488
Cavity Surface-area                               ...     815.5750
Calculating surface distance matrix               ...        done! (  0.1s)
Performing Cholesky decomposition & store         ...        done! (  0.2s)
Overall time for CPCM initialization              ...                 0.2s

----------------------------------------D-I-I-S--------------------------------------------
Iteration    Energy (Eh)           Delta-E    RMSDP     MaxDP     DIISErr   Damp  Time(sec)
-------------------------------------------------------------------------------------------
               ***  Starting incremental Fock matrix formation  ***
    1    -851.7205252843388052     0.00e+00  3.42e-03  8.67e-02  2.59e-01  0.700   8.7
    2    -851.8898722578086335    -1.69e-01  2.24e-03  5.14e-02  1.16e-01  0.700   4.4
                               ***Turning on AO-DIIS***
    3    -851.9538839182174570    -6.40e-02  8.90e-04  1.83e-02  3.60e-02  0.700   4.3
    4    -851.9926076047455581    -3.87e-02  1.51e-03  2.66e-02  1.48e-02  0.000   4.0
    5    -852.0784502697734979    -8.58e-02  3.34e-04  6.11e-03  6.44e-03  0.000   4.2
    6    -852.0789879234440605    -5.38e-04  1.08e-04  2.30e-03  2.02e-03  0.000   3.8
    7    -852.0790258913904154    -3.80e-05  4.49e-05  7.93e-04  7.54e-04  0.000   3.5
               *** Restarting incremental Fock matrix formation ***
                             ****Resetting DIIS****
    8    -852.0790991039294795    -7.32e-05  3.53e-05  1.07e-03  6.55e-04  0.000   8.2
    9    -852.0790976646127319     1.44e-06  2.09e-05  7.84e-04  1.17e-03  0.000   5.5
                              *** Initializing SOSCF ***
---------------------------------------S-O-S-C-F--------------------------------------
Iteration    Energy (Eh)           Delta-E    RMSDP     MaxDP     MaxGrad    Time(sec)
--------------------------------------------------------------------------------------
   10    -852.0791007946039599    -3.13e-06  4.48e-06  1.42e-04  1.54e-04     2.9
               *** Restarting incremental Fock matrix formation ***
   11    -852.0791008408297103    -4.62e-08  5.80e-06  1.61e-04  3.79e-05     8.0
   12    -852.0791007680412577     7.28e-08  3.70e-06  1.16e-04  7.52e-05     4.3
   13    -852.0791008747554542    -1.07e-07  8.92e-07  2.06e-05  4.61e-06     4.0
   14    -852.0791008617956095     1.30e-08  5.65e-07  1.30e-05  6.78e-06     3.3
   15    -852.0791008704464957    -8.65e-09  8.20e-08  1.43e-06  5.12e-07     3.0
                 **** Energy Check signals convergence ****

               *****************************************************
               *                     SUCCESS                       *
               *           SCF CONVERGED AFTER  15 CYCLES          *
               *****************************************************

Recomputing exchange energy using gridx3       ... done (   12.808 sec)
Old exchange energy                            :    -20.578804381 Eh
New exchange energy                            :    -20.578809143 Eh
Exchange energy change after final integration :     -0.000004762 Eh
Total energy after final integration           :   -852.079105629 Eh

SMD CDS free energy correction energy :                 6.41449     Kcal/mol
Total Energy after SMD CDS correction =              -852.068883484 Eh
             **** ENERGY FILE WAS UPDATED (/kaggle/working/Phe-F3-1/Phe-F3_InterFrag.en.tmp) ****

----------------
TOTAL SCF ENERGY
----------------

Total Energy       :       -852.06888348424536 Eh          -23185.97307 eV

Components:
Nuclear Repulsion  :       1002.27387037188976 Eh           27273.25856 eV
Electronic Energy  :      -1854.32087034527353 Eh          -50458.63615 eV
One Electron Energy:      -3161.23358189579130 Eh          -86021.53901 eV
Two Electron Energy:       1306.91271155051777 Eh           35562.90286 eV
CPCM Dielectric    :         -0.03210089360302 Eh              -0.87351 eV
SMD CDS (Gcds)     :          0.01022214488285 Eh               0.27816 eV

Virial components:
Potential Energy   :      -1699.45241712107554 Eh          -46244.45129 eV
Kinetic Energy     :        847.38353363683007 Eh           23058.47822 eV
Virial Ratio       :          2.00552919623928

DFT components:
N(Alpha)           :       55.999997639556 electrons
N(Beta)            :       55.999997639556 electrons
N(Total)           :      111.999995279112 electrons
E(X)               :      -81.837185269002 Eh       
E(C)               :       -4.655550772432 Eh       
E(XC)              :      -86.492736041434 Eh       

CPCM Solvation Model Properties:
Surface-charge          :         -0.02248741524327
Corrected charge        :         -0.00000000000000
Outlying charge corr.   :          0.00003277179343 Eh               0.00089 eV
Free-energy (cav+disp)  :          0.01022214488285 Eh               0.27816 eV

---------------
SCF CONVERGENCE
---------------

  Last Energy change         ...    8.6509e-09  Tolerance :   1.0000e-08
  Last MAX-Density change    ...    1.4289e-06  Tolerance :   1.0000e-07
  Last RMS-Density change    ...    8.1955e-08  Tolerance :   5.0000e-09
  Last DIIS Error            ...    1.5425e-04  Tolerance :   5.0000e-07
  Last Orbital Gradient      ...    5.1241e-07  Tolerance :   1.0000e-05
  Last Orbital Rotation      ...    4.0648e-07  Tolerance :   1.0000e-05


----------------
ORBITAL ENERGIES
----------------

  NO   OCC          E(Eh)            E(eV) 
   0   2.0000     -24.713230      -672.4812 
   1   2.0000     -24.713085      -672.4772 
   2   2.0000     -24.712884      -672.4718 
   3   2.0000     -19.189351      -522.1688 
   4   2.0000     -19.141913      -520.8779 
   5   2.0000     -14.302302      -389.1854 
   6   2.0000     -10.321218      -280.8546 
   7   2.0000     -10.278265      -279.6858 
   8   2.0000     -10.277981      -279.6781 
   9   2.0000     -10.275756      -279.6175 
  10   2.0000     -10.219861      -278.0965 
  11   2.0000     -10.196819      -277.4696 
  12   2.0000     -10.187936      -277.2278 
  13   2.0000     -10.187490      -277.2157 
  14   2.0000     -10.181092      -277.0416 
  15   2.0000      -1.240733       -33.7621 
  16   2.0000      -1.231390       -33.5078 
  17   2.0000      -1.222686       -33.2710 
  18   2.0000      -1.096043       -29.8249 
  19   2.0000      -1.011901       -27.5352 
  20   2.0000      -0.887993       -24.1635 
  21   2.0000      -0.871799       -23.7229 
  22   2.0000      -0.784831       -21.3563 
  23   2.0000      -0.756291       -20.5797 
  24   2.0000      -0.724461       -19.7136 
  25   2.0000      -0.674145       -18.3444 
  26   2.0000      -0.640419       -17.4267 
  27   2.0000      -0.614113       -16.7109 
  28   2.0000      -0.582268       -15.8443 
  29   2.0000      -0.559149       -15.2152 
  30   2.0000      -0.544125       -14.8064 
  31   2.0000      -0.532648       -14.4941 
  32   2.0000      -0.521058       -14.1787 
  33   2.0000      -0.498825       -13.5737 
  34   2.0000      -0.493193       -13.4205 
  35   2.0000      -0.482671       -13.1342 
  36   2.0000      -0.463682       -12.6174 
  37   2.0000      -0.462600       -12.5880 
  38   2.0000      -0.458930       -12.4881 
  39   2.0000      -0.447163       -12.1679 
  40   2.0000      -0.438497       -11.9321 
  41   2.0000      -0.427923       -11.6444 
  42   2.0000      -0.426242       -11.5986 
  43   2.0000      -0.411020       -11.1844 
  44   2.0000      -0.405960       -11.0467 
  45   2.0000      -0.388037       -10.5590 
  46   2.0000      -0.376819       -10.2538 
  47   2.0000      -0.363739        -9.8979 
  48   2.0000      -0.356346        -9.6967 
  49   2.0000      -0.350705        -9.5432 
  50   2.0000      -0.341415        -9.2904 
  51   2.0000      -0.319476        -8.6934 
  52   2.0000      -0.281448        -7.6586 
  53   2.0000      -0.248512        -6.7624 
  54   2.0000      -0.246742        -6.7142 
  55   2.0000      -0.227978        -6.2036 
  56   0.0000      -0.004822        -0.1312 
  57   0.0000      -0.002790        -0.0759 
  58   0.0000       0.006390         0.1739 
  59   0.0000       0.059472         1.6183 
  60   0.0000       0.101930         2.7736 
  61   0.0000       0.103034         2.8037 
  62   0.0000       0.131661         3.5827 
  63   0.0000       0.137676         3.7464 
  64   0.0000       0.153514         4.1773 
  65   0.0000       0.163789         4.4569 
  66   0.0000       0.178620         4.8605 
  67   0.0000       0.181071         4.9272 
  68   0.0000       0.201963         5.4957 
  69   0.0000       0.205652         5.5961 
  70   0.0000       0.219212         5.9651 
  71   0.0000       0.231130         6.2894 
  72   0.0000       0.260093         7.0775 
  73   0.0000       0.277015         7.5380 
  74   0.0000       0.279641         7.6094 
  75   0.0000       0.314993         8.5714 
  76   0.0000       0.326480         8.8840 
  77   0.0000       0.340349         9.2614 
  78   0.0000       0.367138         9.9903 
  79   0.0000       0.388449        10.5702 
  80   0.0000       0.411055        11.1854 
  81   0.0000       0.472388        12.8543 
  82   0.0000       0.489451        13.3187 
  83   0.0000       0.497112        13.5271 
  84   0.0000       0.505730        13.7616 
  85   0.0000       0.527981        14.3671 
  86   0.0000       0.533746        14.5240 
  87   0.0000       0.537910        14.6373 
  88   0.0000       0.552375        15.0309 
  89   0.0000       0.570138        15.5142 
  90   0.0000       0.582760        15.8577 
  91   0.0000       0.597895        16.2695 
  92   0.0000       0.607506        16.5311 
  93   0.0000       0.624388        16.9905 
  94   0.0000       0.633367        17.2348 
  95   0.0000       0.642045        17.4709 
  96   0.0000       0.642779        17.4909 
  97   0.0000       0.653246        17.7757 
  98   0.0000       0.658271        17.9125 
  99   0.0000       0.693282        18.8652 
 100   0.0000       0.716358        19.4931 
 101   0.0000       0.731864        19.9150 
 102   0.0000       0.740495        20.1499 
 103   0.0000       0.762703        20.7542 
 104   0.0000       0.762973        20.7615 
 105   0.0000       0.787451        21.4276 
 106   0.0000       0.798006        21.7148 
 107   0.0000       0.807477        21.9726 
 108   0.0000       0.826296        22.4847 
 109   0.0000       0.841328        22.8937 
 110   0.0000       0.852004        23.1842 
 111   0.0000       0.858839        23.3702 
 112   0.0000       0.867442        23.6043 
 113   0.0000       0.875791        23.8315 
 114   0.0000       0.895682        24.3728 
 115   0.0000       0.901857        24.5408 
 116   0.0000       0.924669        25.1615 
 117   0.0000       0.942108        25.6361 
 118   0.0000       0.948197        25.8017 
 119   0.0000       0.960897        26.1473 
 120   0.0000       0.973375        26.4869 
 121   0.0000       0.999684        27.2028 
 122   0.0000       1.003886        27.3171 
 123   0.0000       1.025251        27.8985 
 124   0.0000       1.047696        28.5093 
 125   0.0000       1.071657        29.1613 
 126   0.0000       1.106419        30.1072 
 127   0.0000       1.108666        30.1683 
 128   0.0000       1.143484        31.1158 
 129   0.0000       1.143522        31.1168 
 130   0.0000       1.165837        31.7240 
 131   0.0000       1.201519        32.6950 
 132   0.0000       1.209898        32.9230 
 133   0.0000       1.229752        33.4632 
 134   0.0000       1.233707        33.5709 
 135   0.0000       1.239126        33.7183 
 136   0.0000       1.256126        34.1809 
 137   0.0000       1.283041        34.9133 
 138   0.0000       1.331645        36.2359 
 139   0.0000       1.335175        36.3319 
 140   0.0000       1.362725        37.0816 
 141   0.0000       1.370993        37.3066 
 142   0.0000       1.387846        37.7652 
 143   0.0000       1.391467        37.8638 
 144   0.0000       1.408314        38.3222 
 145   0.0000       1.419403        38.6239 
 146   0.0000       1.427307        38.8390 
 147   0.0000       1.442799        39.2606 
 148   0.0000       1.467937        39.9446 
 149   0.0000       1.471499        40.0415 
 150   0.0000       1.479192        40.2509 
 151   0.0000       1.491106        40.5750 
 152   0.0000       1.495764        40.7018 
 153   0.0000       1.561249        42.4837 
 154   0.0000       1.600637        43.5555 
 155   0.0000       1.683722        45.8164 
 156   0.0000       1.703901        46.3655 
 157   0.0000       1.708433        46.4888 
 158   0.0000       1.723281        46.8929 
 159   0.0000       1.726935        46.9923 
 160   0.0000       1.751741        47.6673 
 161   0.0000       1.757133        47.8140 
 162   0.0000       1.776165        48.3319 
 163   0.0000       1.782443        48.5027 
 164   0.0000       1.784166        48.5496 
 165   0.0000       1.794531        48.8317 
 166   0.0000       1.796159        48.8760 
 167   0.0000       1.812742        49.3272 
 168   0.0000       1.825701        49.6799 
 169   0.0000       1.834528        49.9200 
 170   0.0000       1.852393        50.4062 
 171   0.0000       1.858339        50.5680 
 172   0.0000       1.860997        50.6403 
 173   0.0000       1.879781        51.1514 
 174   0.0000       1.906071        51.8668 
 175   0.0000       1.908632        51.9365 
 176   0.0000       1.923477        52.3405 
 177   0.0000       1.936846        52.7043 
 178   0.0000       1.947083        52.9828 
 179   0.0000       1.964786        53.4645 
 180   0.0000       1.981328        53.9147 
 181   0.0000       1.993170        54.2369 
 182   0.0000       2.001812        54.4721 
 183   0.0000       2.012833        54.7720 
 184   0.0000       2.081870        56.6506 
 185   0.0000       2.087116        56.7933 
 186   0.0000       2.094678        56.9991 
 187   0.0000       2.119729        57.6807 
 188   0.0000       2.135592        58.1124 
 189   0.0000       2.193226        59.6807 
 190   0.0000       2.204599        59.9902 
 191   0.0000       2.213386        60.2293 
 192   0.0000       2.249614        61.2151 
 193   0.0000       2.258343        61.4526 
 194   0.0000       2.268525        61.7297 
 195   0.0000       2.276766        61.9539 
 196   0.0000       2.286675        62.2236 
 197   0.0000       2.304164        62.6995 
 198   0.0000       2.314445        62.9792 
 199   0.0000       2.319573        63.1188 
 200   0.0000       2.323345        63.2214 
 201   0.0000       2.332103        63.4598 
 202   0.0000       2.348083        63.8946 
 203   0.0000       2.368984        64.4633 
 204   0.0000       2.378676        64.7271 
 205   0.0000       2.393930        65.1422 
 206   0.0000       2.408873        65.5488 
 207   0.0000       2.449395        66.6514 
 208   0.0000       2.473721        67.3134 
 209   0.0000       2.503106        68.1130 
 210   0.0000       2.514898        68.4339 
 211   0.0000       2.524981        68.7082 
 212   0.0000       2.530843        68.8677 
 213   0.0000       2.547849        69.3305 
 214   0.0000       2.575231        70.0756 
 215   0.0000       2.581017        70.2330 
 216   0.0000       2.589020        70.4508 
 217   0.0000       2.630959        71.5920 
 218   0.0000       2.657202        72.3062 
 219   0.0000       2.666687        72.5642 
 220   0.0000       2.694121        73.3108 
 221   0.0000       2.713237        73.8309 
 222   0.0000       2.727354        74.2151 
 223   0.0000       2.756875        75.0184 
 224   0.0000       2.759183        75.0812 
 225   0.0000       2.784412        75.7677 
 226   0.0000       2.815986        76.6269 
 227   0.0000       2.826438        76.9113 
 228   0.0000       2.854034        77.6622 
 229   0.0000       2.881273        78.4034 
 230   0.0000       2.898840        78.8814 
 231   0.0000       2.918396        79.4136 
 232   0.0000       2.979390        81.0733 
 233   0.0000       2.997218        81.5584 
 234   0.0000       3.021225        82.2117 
 235   0.0000       3.071047        83.5674 
 236   0.0000       3.100235        84.3617 
 237   0.0000       3.107739        84.5659 
 238   0.0000       3.175873        86.4199 
 239   0.0000       3.193209        86.8916 
 240   0.0000       3.224565        87.7449 
 241   0.0000       3.320089        90.3442 
 242   0.0000       3.328802        90.5813 
 243   0.0000       3.366031        91.5944 
 244   0.0000       3.379918        91.9722 
 245   0.0000       3.411553        92.8331 
 246   0.0000       3.456498        94.0561 
 247   0.0000       3.532161        96.1150 
 248   0.0000       3.559468        96.8580 
 249   0.0000       3.736416       101.6731 

                    ********************************
                    * MULLIKEN POPULATION ANALYSIS *
                    ********************************

-----------------------
MULLIKEN ATOMIC CHARGES
-----------------------
   0 F :   -0.311351
   1 F :   -0.311526
   2 F :   -0.309490
   3 O :   -0.503902
   4 O :   -0.509171
   5 N :   -0.623996
   6 C :   -0.251305
   7 C :   -0.008593
   8 C :    0.100629
   9 C :   -0.190452
  10 C :   -0.190606
  11 C :    0.585211
  12 C :    0.331149
  13 C :    0.329121
  14 C :    0.263855
  15 H :    0.132643
  16 H :    0.135894
  17 H :    0.146699
  18 H :    0.140110
  19 H :    0.139394
  20 H :    0.269782
  21 H :    0.262211
  22 H :    0.373694
Sum of atomic charges:   -0.0000000

--------------------------------
MULLIKEN REDUCED ORBITAL CHARGES
--------------------------------
  0 F s       :     3.969326  s :     3.969326
      pz      :     1.859726  p :     5.324508
      px      :     1.756852
      py      :     1.707930
      dz2     :     0.002379  d :     0.017517
      dxz     :     0.002631
      dyz     :     0.003198
      dx2y2   :     0.003921
      dxy     :     0.005389

  1 F s       :     3.969314  s :     3.969314
      pz      :     1.901370  p :     5.324711
      px      :     1.888644
      py      :     1.534696
      dz2     :     0.002062  d :     0.017501
      dxz     :     0.000536
      dyz     :     0.004451
      dx2y2   :     0.005595
      dxy     :     0.004857

  2 F s       :     3.970853  s :     3.970853
      pz      :     1.879829  p :     5.321002
      px      :     1.547131
      py      :     1.894042
      dz2     :     0.002292  d :     0.017635
      dxz     :     0.004912
      dyz     :     0.000684
      dx2y2   :     0.005357
      dxy     :     0.004390

  3 O s       :     3.827717  s :     3.827717
      pz      :     1.599682  p :     4.655172
      px      :     1.676320
      py      :     1.379169
      dz2     :     0.005183  d :     0.021013
      dxz     :     0.005104
      dyz     :     0.001781
      dx2y2   :     0.004033
      dxy     :     0.004911

  4 O s       :     3.848747  s :     3.848747
      pz      :     1.537890  p :     4.634719
      px      :     1.410560
      py      :     1.686269
      dz2     :     0.004441  d :     0.025705
      dxz     :     0.005901
      dyz     :     0.003183
      dx2y2   :     0.006590
      dxy     :     0.005591

  5 N s       :     3.590623  s :     3.590623
      pz      :     1.479437  p :     4.004775
      px      :     1.381949
      py      :     1.143388
      dz2     :     0.008856  d :     0.028598
      dxz     :     0.003778
      dyz     :     0.003061
      dx2y2   :     0.006201
      dxy     :     0.006703

  6 C s       :     3.241573  s :     3.241573
      pz      :     0.968780  p :     2.972386
      px      :     0.925372
      py      :     1.078234
      dz2     :     0.005766  d :     0.037346
      dxz     :     0.009146
      dyz     :     0.008097
      dx2y2   :     0.009724
      dxy     :     0.004613

  7 C s       :     3.194151  s :     3.194151
      pz      :     0.999523  p :     2.757701
      px      :     0.879538
      py      :     0.878640
      dz2     :     0.010577  d :     0.056741
      dxz     :     0.013766
      dyz     :     0.007129
      dx2y2   :     0.013084
      dxy     :     0.012185

  8 C s       :     3.139815  s :     3.139815
      pz      :     0.937553  p :     2.716665
      px      :     0.911865
      py      :     0.867247
      dz2     :     0.004102  d :     0.042891
      dxz     :     0.005957
      dyz     :     0.007658
      dx2y2   :     0.012287
      dxy     :     0.012888

  9 C s       :     3.194519  s :     3.194519
      pz      :     1.035801  p :     2.962317
      px      :     0.943471
      py      :     0.983045
      dz2     :     0.003088  d :     0.033615
      dxz     :     0.004930
      dyz     :     0.005320
      dx2y2   :     0.010043
      dxy     :     0.010235

 10 C s       :     3.194615  s :     3.194615
      pz      :     1.030494  p :     2.962432
      px      :     0.943631
      py      :     0.988306
      dz2     :     0.003970  d :     0.033559
      dxz     :     0.005873
      dyz     :     0.003582
      dx2y2   :     0.011887
      dxy     :     0.008247

 11 C s       :     2.986434  s :     2.986434
      pz      :     0.715313  p :     2.308746
      px      :     0.732585
      py      :     0.860848
      dz2     :     0.023388  d :     0.119609
      dxz     :     0.024325
      dyz     :     0.017846
      dx2y2   :     0.024488
      dxy     :     0.029562

 12 C s       :     3.093059  s :     3.093059
      pz      :     0.978184  p :     2.501055
      px      :     0.796346
      py      :     0.726525
      dz2     :     0.007320  d :     0.074737
      dxz     :     0.011156
      dyz     :     0.012871
      dx2y2   :     0.020694
      dxy     :     0.022696

 13 C s       :     3.093984  s :     3.093984
      pz      :     1.010069  p :     2.502202
      px      :     0.900100
      py      :     0.592034
      dz2     :     0.006913  d :     0.074693
      dxz     :     0.007784
      dyz     :     0.014910
      dx2y2   :     0.021260
      dxy     :     0.023825

 14 C s       :     3.081229  s :     3.081229
      pz      :     1.047679  p :     2.582492
      px      :     0.619373
      py      :     0.915440
      dz2     :     0.007154  d :     0.072423
      dxz     :     0.014408
      dyz     :     0.008520
      dx2y2   :     0.021376
      dxy     :     0.020965

 15 H s       :     0.855803  s :     0.855803
      pz      :     0.005102  p :     0.011555
      px      :     0.002523
      py      :     0.003929

 16 H s       :     0.852509  s :     0.852509
      pz      :     0.002980  p :     0.011597
      px      :     0.002067
      py      :     0.006550

 17 H s       :     0.842307  s :     0.842307
      pz      :     0.005936  p :     0.010994
      px      :     0.002615
      py      :     0.002442

 18 H s       :     0.847296  s :     0.847296
      pz      :     0.003292  p :     0.012594
      px      :     0.004370
      py      :     0.004933

 19 H s       :     0.848006  s :     0.848006
      pz      :     0.002635  p :     0.012600
      px      :     0.002341
      py      :     0.007624

 20 H s       :     0.706757  s :     0.706757
      pz      :     0.005959  p :     0.023460
      px      :     0.005468
      py      :     0.012033

 21 H s       :     0.714244  s :     0.714244
      pz      :     0.011248  p :     0.023545
      px      :     0.007257
      py      :     0.005040

 22 H s       :     0.589299  s :     0.589299
      pz      :     0.007410  p :     0.037007
      px      :     0.008532
      py      :     0.021064


------------------------
MULLIKEN OVERLAP CHARGES
------------------------
B(  0-F , 10-C ) :  -0.0832 B(  0-F , 12-C ) :   0.5536 B(  0-F , 14-C ) :  -0.0719 
B(  1-F ,  9-C ) :  -0.0826 B(  1-F , 13-C ) :   0.5532 B(  1-F , 14-C ) :  -0.0724 
B(  2-F , 12-C ) :  -0.0889 B(  2-F , 13-C ) :  -0.0887 B(  2-F , 14-C ) :   0.5720 
B(  3-O ,  4-O ) :  -0.1586 B(  3-O ,  7-C ) :  -0.1565 B(  3-O , 11-C ) :   0.6054 
B(  3-O , 22-H ) :   0.5602 B(  4-O ,  7-C ) :  -0.1558 B(  4-O , 11-C ) :   1.2215 
B(  5-N ,  6-C ) :  -0.1346 B(  5-N ,  7-C ) :   0.6386 B(  5-N , 11-C ) :  -0.0913 
B(  5-N , 17-H ) :  -0.0741 B(  5-N , 20-H ) :   0.6975 B(  5-N , 21-H ) :   0.6879 
B(  6-C ,  7-C ) :   0.7105 B(  6-C ,  8-C ) :   0.6167 B(  6-C ,  9-C ) :  -0.0859 
B(  6-C , 10-C ) :  -0.0898 B(  6-C , 11-C ) :  -0.0624 B(  6-C , 15-H ) :   0.7262 
B(  6-C , 16-H ) :   0.7601 B(  6-C , 17-H ) :  -0.0894 B(  7-C ,  8-C ) :  -0.0770 
B(  7-C , 11-C ) :   0.6269 B(  7-C , 15-H ) :  -0.0677 B(  7-C , 16-H ) :  -0.0626 
B(  7-C , 17-H ) :   0.7569 B(  7-C , 20-H ) :  -0.0722 B(  7-C , 21-H ) :  -0.0799 
B(  8-C ,  9-C ) :   0.9546 B(  8-C , 10-C ) :   0.9653 B(  8-C , 16-H ) :  -0.0611 
B(  8-C , 18-H ) :  -0.0696 B(  8-C , 19-H ) :  -0.0678 B(  9-C , 10-C ) :  -0.1322 
B(  9-C , 12-C ) :  -0.0506 B(  9-C , 13-C ) :   0.8465 B(  9-C , 14-C ) :  -0.1214 
B(  9-C , 18-H ) :   0.7328 B( 10-C , 12-C ) :   0.8546 B( 10-C , 14-C ) :  -0.1209 
B( 10-C , 19-H ) :   0.7317 B( 11-C , 17-H ) :  -0.0655 B( 12-C , 13-C ) :  -0.0768 
B( 12-C , 14-C ) :   0.6578 B( 12-C , 19-H ) :  -0.0705 B( 13-C , 14-C ) :   0.6579 
B( 13-C , 18-H ) :  -0.0695 B( 15-H , 16-H ) :  -0.0637 B( 20-H , 21-H ) :  -0.0599 



                     *******************************
                     * LOEWDIN POPULATION ANALYSIS *
                     *******************************

----------------------
LOEWDIN ATOMIC CHARGES
----------------------
   0 F :   -0.089214
   1 F :   -0.089574
   2 F :   -0.090706
   3 O :   -0.162626
   4 O :   -0.293462
   5 N :   -0.278943
   6 C :   -0.113863
   7 C :   -0.033304
   8 C :   -0.008069
   9 C :   -0.107356
  10 C :   -0.105896
  11 C :    0.174198
  12 C :    0.090517
  13 C :    0.090007
  14 C :    0.048021
  15 H :    0.088290
  16 H :    0.091217
  17 H :    0.093895
  18 H :    0.101183
  19 H :    0.101602
  20 H :    0.140283
  21 H :    0.135432
  22 H :    0.218367

-------------------------------
LOEWDIN REDUCED ORBITAL CHARGES
-------------------------------
  0 F s       :     3.723883  s :     3.723883
      pz      :     1.854294  p :     5.328801
      px      :     1.760475
      py      :     1.714032
      dz2     :     0.004962  d :     0.036530
      dxz     :     0.005536
      dyz     :     0.006701
      dx2y2   :     0.007989
      dxy     :     0.011342

  1 F s       :     3.724005  s :     3.724005
      pz      :     1.892966  p :     5.329056
      px      :     1.882764
      py      :     1.553325
      dz2     :     0.004272  d :     0.036513
      dxz     :     0.001096
      dyz     :     0.009387
      dx2y2   :     0.011631
      dxy     :     0.010127

  2 F s       :     3.723513  s :     3.723513
      pz      :     1.874532  p :     5.329931
      px      :     1.564923
      py      :     1.890476
      dz2     :     0.004795  d :     0.037262
      dxz     :     0.010721
      dyz     :     0.001442
      dx2y2   :     0.011268
      dxy     :     0.009037

  3 O s       :     3.476314  s :     3.476314
      pz      :     1.594675  p :     4.641036
[...]
11 C  dyz             0.5       0.0       0.2       0.0
11 C  dx2y2           0.3       0.0       0.8       0.0
11 C  dxy             0.9       0.2       0.0       0.0
12 C  s               0.0       0.0       0.0       0.1
12 C  px              0.0       0.0       0.0       0.1
12 C  dz2             0.0       0.0       0.0       0.1
12 C  dxz             0.0       0.1       0.0       0.7
12 C  dyz             0.0       0.0       0.0       0.9
12 C  dx2y2           0.1       0.2       0.0       0.0
12 C  dxy             0.0       0.0       0.0       4.8
13 C  s               0.0       0.0       0.0       0.1
13 C  py              0.0       0.0       0.0       0.1
13 C  dz2             0.0       0.0       0.0       0.3
13 C  dxz             0.0       0.0       0.0       1.0
13 C  dyz             0.0       0.1       0.0       0.1
13 C  dx2y2           0.0       0.1       0.1       4.0
13 C  dxy             0.0       0.2       0.0       1.2
14 C  s               0.0       0.0       0.0       0.2
14 C  px              0.0       0.0       0.0       0.1
14 C  dxz             0.0       0.1       0.0       0.3
14 C  dyz             0.0       0.0       0.0       0.9
14 C  dx2y2           0.0       0.1       0.1       2.9
14 C  dxy             0.0       0.1       0.0       1.4
15 H  s               0.5       4.1       1.0       0.2
15 H  pz              1.3       9.0       2.9       0.5
15 H  px              0.2       1.8       0.1       0.1
15 H  py              0.5       4.0       0.8       0.1
16 H  s               0.2       4.2       0.6       0.1
16 H  pz              0.0       1.6       0.2       0.0
16 H  px              0.0       0.0       0.1       0.0
16 H  py              0.5      13.6       1.6       0.2
17 H  s               0.0       0.0       4.9       0.0
17 H  pz              0.0       0.0      11.1       0.1
17 H  px              0.0       0.4       2.3       0.0
17 H  py              0.0       0.0       6.0       0.0
18 H  s               0.0       0.0       0.0       3.2
18 H  pz              0.0       0.0       0.0       2.3
18 H  px              0.0       0.2       0.1       3.9
18 H  py              0.0       0.1       0.0       3.9
19 H  s               0.0       0.0       0.0       3.1
19 H  pz              0.0       0.1       0.0       0.4
19 H  px              0.1       0.2       0.0       0.7
19 H  py              0.0       0.0       0.1       8.8
20 H  s               0.5       2.6       2.7       0.0
20 H  pz              0.2       1.2       0.9       0.0
20 H  px              0.1       0.1       0.0       0.0
20 H  py              1.3       5.7       5.3       0.0
21 H  s               0.3       2.4       3.3       0.0
21 H  pz              0.7       3.9       4.5       0.0
21 H  px              0.1       0.7       2.1       0.0
21 H  py              0.1       1.9       1.3       0.0
22 H  s              14.7       0.1       1.2       0.0
22 H  pz              1.1       0.0       0.3       0.0
22 H  px              0.3       0.0       0.0       0.0
22 H  py             36.0       0.2       2.1       0.0


                      *****************************
                      * MAYER POPULATION ANALYSIS *
                      *****************************

  NA   - Mulliken gross atomic population
  ZA   - Total nuclear charge
  QA   - Mulliken gross atomic charge
  VA   - Mayer's total valence
  BVA  - Mayer's bonded valence
  FA   - Mayer's free valence

  ATOM       NA         ZA         QA         VA         BVA        FA
  0 F      9.3182     9.0000    -0.3182     1.0393     1.0393    -0.0000
  1 F      9.3183     9.0000    -0.3183     1.0393     1.0393     0.0000
  2 F      9.3084     9.0000    -0.3084     1.0488     1.0488     0.0000
  3 O      8.4861     8.0000    -0.4861     2.0436     2.0436    -0.0000
  4 O      8.5120     8.0000    -0.5120     2.0189     2.0189    -0.0000
  5 N      7.6205     7.0000    -0.6205     2.8499     2.8499    -0.0000
  6 C      6.2490     6.0000    -0.2490     3.8690     3.8690     0.0000
  7 C      6.0054     6.0000    -0.0054     3.8535     3.8535    -0.0000
  8 C      5.9111     6.0000     0.0889     3.9342     3.9342     0.0000
  9 C      6.1916     6.0000    -0.1916     3.8745     3.8745     0.0000
 10 C      6.1868     6.0000    -0.1868     3.8689     3.8689    -0.0000
 11 C      5.4294     6.0000     0.5706     3.9451     3.9451    -0.0000
 12 C      5.6635     6.0000     0.3365     3.7399     3.7399    -0.0000
 13 C      5.6632     6.0000     0.3368     3.7385     3.7385    -0.0000
 14 C      5.7371     6.0000     0.2629     3.7117     3.7117    -0.0000
 15 H      0.8691     1.0000     0.1309     0.9558     0.9558     0.0000
 16 H      0.8616     1.0000     0.1384     0.9513     0.9513     0.0000
 17 H      0.8610     1.0000     0.1390     0.9490     0.9490    -0.0000
 18 H      0.8575     1.0000     0.1425     0.9575     0.9575     0.0000
 19 H      0.8577     1.0000     0.1423     0.9542     0.9542    -0.0000
 20 H      0.7269     1.0000     0.2731     0.9073     0.9073    -0.0000
 21 H      0.7356     1.0000     0.2644     0.9206     0.9206    -0.0000
 22 H      0.6299     1.0000     0.3701     0.8767     0.8767    -0.0000

  Mayer bond orders larger than 0.100000
B(  0-F , 12-C ) :   0.9048 B(  1-F , 13-C ) :   0.9047 B(  2-F , 14-C ) :   0.9436 
B(  3-O , 11-C ) :   1.1260 B(  3-O , 22-H ) :   0.8245 B(  4-O , 11-C ) :   1.8566 
B(  5-N ,  7-C ) :   1.0206 B(  5-N , 20-H ) :   0.8971 B(  5-N , 21-H ) :   0.8913 
B(  6-C ,  7-C ) :   0.9553 B(  6-C ,  8-C ) :   0.9839 B(  6-C , 15-H ) :   0.9362 
B(  6-C , 16-H ) :   0.9355 B(  7-C , 11-C ) :   0.9289 B(  7-C , 17-H ) :   0.9288 
B(  8-C ,  9-C ) :   1.4022 B(  8-C , 10-C ) :   1.4006 B(  9-C , 13-C ) :   1.3825 
B(  9-C , 18-H ) :   0.9211 B( 10-C , 12-C ) :   1.3881 B( 10-C , 19-H ) :   0.9236 
B( 12-C , 14-C ) :   1.2960 B( 13-C , 14-C ) :   1.3008 

-------
TIMINGS
-------

Total SCF time: 0 days 0 hours 0 min 54 sec 

Total time                  ....      54.042 sec
Sum of individual times     ....      50.811 sec  ( 94.0%)

SCF preparation             ....       0.578 sec  (  1.1%)
Fock matrix formation       ....      49.520 sec  ( 91.6%)
  Startup                   ....       0.007 sec  (  0.0% of F)
  Split-RI-J                ....       3.831 sec  (  7.7% of F)
  Chain of spheres X        ....      39.227 sec  ( 79.2% of F)
  XC integration            ....       5.571 sec  ( 11.2% of F)
    XC Preparation          ....       0.000 sec  (  0.0% of XC)
    Basis function eval.    ....       2.106 sec  ( 37.8% of XC)
    Density eval.           ....       1.316 sec  ( 23.6% of XC)
    XC-Functional eval.     ....       0.302 sec  (  5.4% of XC)
    XC-Potential eval.      ....       1.555 sec  ( 27.9% of XC)
  CPCM terms                ....       3.984 sec  (  8.0% of F)
Diagonalization             ....       0.000 sec  (  0.0%)
Density matrix formation    ....       0.026 sec  (  0.0%)
Total Energy calculation    ....       0.014 sec  (  0.0%)
Population analysis         ....       0.429 sec  (  0.8%)
Orbital Transformation      ....       0.037 sec  (  0.1%)
Orbital Orthonormalization  ....       0.000 sec  (  0.0%)
DIIS solution               ....       0.156 sec  (  0.3%)
  MO trafo                  ....       0.017 sec  ( 10.6 % of DIIS)
  Orb grad                  ....       0.000 sec  (  0.0 % of DIIS)
  Energy W gradient         ....       0.000 sec  (  0.0 % of DIIS)
  DIIS error                ....       0.030 sec  ( 19.3 % of DIIS)
  DIIS work                 ....       0.085 sec  ( 54.2 % of DIIS)
  Form Q                    ....       0.000 sec  (  0.0 % of DIIS)
  Form QpQm                 ....       0.000 sec  (  0.0 % of DIIS)
  Exp/Cayley                ....       0.000 sec  (  0.0 % of DIIS)
  Orb update                ....       0.000 sec  (  0.0 % of DIIS)
  Wake-sleep                ....       0.005 sec  (  3.2 % of DIIS)
SOSCF solution              ....       0.050 sec  (  0.1%)
  MO trafo                  ....       0.024 sec  ( 48.5 % of SOSCF)
  Orb grad                  ....       0.001 sec  (  2.6 % of SOSCF)
  Rot update                ....       0.002 sec  (  4.5 % of SOSCF)
  Step                      ....       0.019 sec  ( 39.2 % of SOSCF)
Finished LeanSCF after  54.2 sec

Maximum memory used throughout the entire LEANSCF-calculation: 40.2 MB


-------------------------------------------------------------------------------
                          DFT DISPERSION CORRECTION                            
                                                                               
                              DFTD3 V3.1  Rev 1                                
                          USING Becke-Johnson damping                          
-------------------------------------------------------------------------------
The B3LYP functional is recognized
Active option DFTDOPT                   ...         4   

molecular C6(AA) [au] = 5755.363164 


            DFT-D V3
 parameters
 s6 scaling factor         :     1.0000 
 a1 scaling factor         :     0.3981 
 s8 scaling factor         :     1.9889 
 a2 scaling factor         :     4.4211 
 ad hoc parameters k1-k3   :    16.0000     1.3333    -4.0000 

 Edisp/kcal,au: -27.901808468851  -0.044464357346 
 E6   /kcal   : -13.177922529 
 E8   /kcal   : -14.723885940 
 % E8         :  52.770364174 

-------------------------   ----------------
Dispersion correction           -0.044464357
-------------------------   ----------------


-------------------------   --------------------
FINAL SINGLE POINT ENERGY      -852.119855803562
-------------------------   --------------------

                                *** OPTIMIZATION RUN DONE ***



           ************************************************************
           *        Program running with 2 parallel MPI-processes     *
           *              working on a common directory               *
           ************************************************************

------------------------------------------------------------------------------
                              ORCA PROPERTY CALCULATIONS
------------------------------------------------------------------------------

GBWName                                 ... /kaggle/working/Phe-F3-1/Phe-F3_InterFrag.gbw
Number of atoms                         ...     23
Number of basis functions               ...    250
Max core memory                         ...   3000 MB

Electric properties:
Dipole moment                           ... YES
Quadrupole moment                       ...  NO
Static polarizability (Dipole/Dipole)   ...  NO
Static polarizability (Dipole/Quad.)    ...  NO
Static polarizability (Quad./Quad.)     ...  NO
Static polarizability (Velocity)        ...  NO
Static hyperpolarizability              ...  NO

Atomic electric properties:
Dipole moment                           ...  NO
Quadrupole moment                       ...  NO
Static polarizability                   ...  NO

Choice of electric origin               ... Center of mass
Position of electric origin             ...     0.161489    -0.154458    -0.108950

General magnetic properties:
Magnetizability                         ...  NO

EPR properties:
g-Tensor (aka g-matrix)                 ...  NO
Zero-Field splitting spin-orbit         ...  NO
Zero-field splitting spin-spin          ...  NO
Hyperfine couplings                     ...  NO (   0 nuclei)
Quadrupole couplings                    ...  NO (   0 nuclei)
Contact density                         ...  NO (   0 nuclei)

NMR properties:
Chemical shifts                         ...  NO (   0 nuclei)
Spin-rotation constants                 ...  NO (   0 nuclei)
Spin-spin couplings                     ...  NO (   0 nuclei,    0 pairs)

Choice of magnetic origin               ... GIAO
Position of magnetic origin             ...     0.000000     0.000000     0.000000

Properties with geometric perturbations:
SCF Hessian                             ...  NO
IR spectrum                             ...  NO
VCD spectrum                            ...  NO
X-ray spectroscopy properties:
SCF XES/XAS/RIXS spectra                ...  NO

SCF SOC stabilization energy            ...  NO
Diagonal Born-Oppenheimer correction    ...  NO

-------------
DIPOLE MOMENT
-------------

Method             : SCF
Type of density    : Electron Density
Multiplicity       :   1
Irrep              :   0
Energy             :  -852.0753914462168268 Eh
Basis              : AO
                                X                 Y                 Z
Electronic contribution:     21.968484899      -6.864660720      -3.514970291
Nuclear contribution   :    -22.435278491       7.884306651       4.040974130
                        -----------------------------------------
Total Dipole Moment    :     -0.466793591       1.019645931       0.526003838
                        -----------------------------------------
Magnitude (a.u.)       :      1.238650120
Magnitude (Debye)      :      3.148398396



--------------------
Rotational spectrum 
--------------------
 
Rotational constants in cm-1:             0.034082             0.011807             0.010121 
Rotational constants in MHz :          1021.738086           353.957079           303.408985 

Dipole components along the rotational axes: 
x,y,z [a.u.] :    -0.569671     0.879354     0.660655 
x,y,z [Debye]:    -1.447989     2.235140     1.679252 

 

Dipole moment calculation done in   0.0 sec 

Maximum memory used throughout the entire PROP-calculation: 14.7 MB

--------------------------------
SUGGESTED CITATIONS FOR THIS RUN
--------------------------------

Below you find a list of papers that are relevant to this ORCA run
We neither can nor want to force you to cite these papers, but we appreciate if you do
You receive ORCA, which is the product of decades of hard work by many enthusiastic individuals, for free
The only thing we kindly ask in return is that you cite our papers,
We deeply appreciate it, if you show your appreciation for ORCA by not just citing the generic ORCA reference.

Please note that relegating all ORCA citations to the supporting information does *not* help us.
SI sections are not indexed - citations you put there will not count into any citation statistics
But we need these citations in order to attract the funding resources that allow us to do what we are doing

Therefore, if you are a happy ORCA user, please consider citing a few of the papers listed below in the main body of your paper

In addition to the list printed below, the program has created the file /kaggle/working/Phe-F3-1/Phe-F3_InterFrag.bibtex that contains the list in bibtex format
You can import this file easily into all common literature databanks and citation aid programs

It goes without saying that in many instances, there are alternative algorithms to achieve similar
results as the ones you have gotten from ORCA. It is, of course, also the case that in some instances
ORCA just re-implements algorithms worked out by others. We are fully aware of that and we are also
fully appreciative of our colleagues work. Hence this citation list should not be read as indicating
that the listed papers, which are focused on our own work, are the only ones worth citing. It simply
meant to make it easier for users to cite ORCA specific papers. It is not a substitute for doing your
own literature research and citing the relevant literature in a scientifically appropriate manner.

List of essential papers. We consider these as the minimum necessary citations

  1. Neese, F.
     Software update: the ORCA program system, version 6.0
     WIRES Comput. Molec. Sci. 2025 15(1), e70019
     doi.org/10.1002/wcms.70019

List of papers to cite with high priority. The work reported in these papers was absolutely
necessary for this run to complete.
Our perspective: the developers of density functionals and basis sets usually get cited in chemistry papers
Good! But without the algorithms to do something with them, the functionals or basis sets would not do anything.
Hence, in our opinion, the algorithm design and method developments papers are equally worthy of getting cited

  1. Neese, F.
     An improvement of the resolution of the identity approximation for the formation of the Coulomb matrix
     J. Comp. Chem. 2003 24(14), 1740-1747
     doi.org/10.1002/jcc.10318
  2. Neese, F.; Wennmohs, F.; Hansen, A.; Becker, U.
     Efficient, approximate and parallel Hartree-Fock and hybrid DFT calculations. A 'chain-of-spheres' algorithm for the Hartree-Fock exchange
     Chem. Phys. 2009 356(1-3), 98-109
     doi.org/10.1016/j.chemphys.2008.10.036
  3. Grimme, S.; Antony, J.; Ehrlich, S.; Krieg, H.
     A consistent and accurate ab initio parametrization of density functional dispersion correction (DFT-D) for the 94 elements H-Pu
     J. Chem. Phys. 2010 132 , 154104
     doi.org/10.1063/1.3382344
  4. Grimme, S.; Ehrlich, S.; Goerigk, L.
     Effect of the damping function in dispersion corrected density functional theory
     J. Comput. Chem. 2011 32(7), 1456-1465
     doi.org/10.1002/jcc.21759
  5. Garcia-Rates, M.; Neese, F.
     Effect of the Solute Cavity on the Solvation Energy and its Derivatives within the Framework of the Gaussian Charge Scheme
     J. Comput. Chem. 2020 41 , 922-939
     doi.org/10.1002/jcc.26139
  6. Helmich-Paris, B.; de Souza, B.; Neese, F.; Izsák, R.
     An improved chain of spheres for exchange algorithm
     J. Chem. Phys. 2021 155(10), 104109
     doi.org/10.1063/5.0058766
  7. Neese, F.
     The SHARK Integral Generation and Digestion System
     J. Comp. Chem. 2022 44(3), 381
     doi.org/10.1002/jcc.26942

List of suggested additional citations. These are papers that are important in the 'surrounding' of 
of this run, or papers that preceded the highly important papers. If you like your results we are grateful for a citation.

  1. Izsak, R.; Neese, F.
     An overlap fitted chain of spheres exchange method
     J. Chem. Phys. 2011 135 , 144105
     doi.org/10.1063/1.3646921
  2. Izsak, R.; Hansen, A.; Neese, F.
     The resolution of identity and chain of spheres approximations for the LPNO-CCSD singles Fock term
     Molec. Phys. 2012 110 , 2413-2417
     doi.org/10.1080/00268976.2012.687466
  3. Neese, F.
     The ORCA program system
     WIRES Comput. Molec. Sci. 2012 2(1), 73-78
     doi.org/10.1002/wcms.81
  4. Izsak, R.; Neese, F.; Klopper, W.
     Robust fitting techniques in the chain of spheres approximation to the Fock exchange: The role of the complementary space
     J. Chem. Phys. 2013 139 , 
     doi.org/10.1063/1.4819264
  5. Neese, F.
     Software update: the ORCA program system, version 4.0
     WIRES Comput. Molec. Sci. 2018 8(1), 1-6
     doi.org/10.1002/wcms.1327
  6. Neese, F.; Wennmohs, F.; Becker, U.; Riplinger, C.
     The ORCA quantum chemistry program package
     J. Chem. Phys. 2020 152(22), 224108
     doi.org/10.1063/5.0004608
  7. Neese, F.
     Software update: The ORCA program system—Version 5.0
     WIRES Comput. Molec. Sci. 2022 12(1), e1606
     doi.org/10.1002/wcms.1606

List of optional additional citations

  1. Neese, F.
     Approximate second-order SCF convergence for spin unrestricted wavefunctions
     Chem. Phys. Lett. 2000 325(1-3), 93-98
     doi.org/10.1016/s0009-2614(00)00662-x

Timings for individual modules:

Sum of individual times          ...     1147.065 sec (=  19.118 min)
Startup calculation              ...       36.112 sec (=   0.602 min)   3.1 %
SCF iterations                   ...      730.526 sec (=  12.175 min)  63.7 %
Property calculations            ...        0.454 sec (=   0.008 min)   0.0 %
SCF Gradient evaluation          ...      379.889 sec (=   6.331 min)  33.1 %
Geometry relaxation              ...        0.084 sec (=   0.001 min)   0.0 %
                             ****ORCA TERMINATED NORMALLY****
TOTAL RUN TIME: 0 days 0 hours 19 minutes 12 seconds 132 msec
