
                                 *****************
                                 * O   R   C   A *
                                 *****************

                                            #,                                       
                                            ###                                      
                                            ####                                     
                                            #####                                    
                                            ######                                   
                                           ########,                                 
                                     ,,################,,,,,                         
                               ,,#################################,,                 
                          ,,##########################################,,             
                       ,#########################################, ''#####,          
                    ,#############################################,,   '####,        
                  ,##################################################,,,,####,       
                ,###########''''           ''''###############################       
              ,#####''   ,,,,##########,,,,          '''####'''          '####       
            ,##' ,,,,###########################,,,                        '##       
           ' ,,###''''                  '''############,,,                           
         ,,##''                                '''############,,,,        ,,,,,,###''
      ,#''                                            '''#######################'''  
     '                                                          ''''####''''         
             ,#######,   #######,   ,#######,      ##                                
            ,#'     '#,  ##    ##  ,#'     '#,    #''#        ,####,    ,#,          
            ##       ##  ##   ,#'  ##            #'  '#       #'       ,# #          
            ##       ##  #######   ##           ,######,      #####,      #          
            '#,     ,#'  ##    ##  '#,     ,#' ,#      #,     #,   #      #          
             '#######'   ##     ##  '#######'  #'      '#     '####' #    #          



                #########################################################
                #                        -***-                          #
                #          Department of theory and spectroscopy        #
                #                                                       #
                #                      Frank Neese                      #
                #                                                       #
                #     Directorship, Architecture, Infrastructure        #
                #                    SHARK, DRIVERS                     #
                #        Core code/Algorithms in most modules           #
                #                                                       #
                #        Max Planck Institute fuer Kohlenforschung      #
                #                Kaiser Wilhelm Platz 1                 #
                #                 D-45470 Muelheim/Ruhr                 #
                #                      Germany                          #
                #                                                       #
                #                  All rights reserved                  #
                #                        -***-                          #
                #########################################################


                         Program Version 6.1.1  -  RELEASE   -
                                (GIT: $487d211c$)
                          ($2025-11-21 10:33:24 +0100$)
                                                                         
                                  - NO-DMRG VERSION -                    
                                                                         


 With contributions from (in alphabetic order):
[Max-Planck-Institut fuer Kohlenforschung]                               
  Daniel Aravena         : Magnetic Suceptibility                        
  Michael Atanasov       : Ab Initio Ligand Field Theory (pilot matlab implementation)
  Alexander A. Auer      : GIAO ZORA, VPT2 properties, NMR spectrum      
  Ute Becker             : All parallelization in ORCA, NUMFREQ, NUMCALC 
  Giovanni Bistoni       : ED, misc. LED, open-shell LED, HFLD           
  Dmytro Bykov           : pre 5.0 version of the SCF Hessian            
  Marcos Casanova-Páez   : Triplet and SCS-CIS(D). UHF-(DLPNO)-IP/EA/STEOM-CCSD. UHF-CVS-IP/STEOM-CCSD   
  Vijay G. Chilkuri      : MRCI spin determinant printing, contributions to CSF-ICE 
  Pauline Colinet        : FMM embedding                                 
  Dipayan Datta          : RHF DLPNO-CCSD density                        
  Achintya Kumar Dutta   : EOM-CC, STEOM-CC                              
  Nicolas Foglia         : Exact transition moments, OPA infrastructure, MCD improvements    
  Dmitry Ganyushin       : Spin-Orbit,Spin-Spin,Magnetic field MRCI      
  Miquel Garcia-Rates    : C-PCM and meta-GGA Hessian, CCSD/C-PCM, Gaussian charge scheme 
  Tiago L. C. Gouveia    : GS-ROHF, GS-ROCIS                             
  Yang Guo               : DLPNO-NEVPT2, F12-NEVPT2, CIM, IAO-localization        
  Andreas Hansen         : Spin unrestricted coupled pair/coupled cluster methods 
  Ingolf Harden          : AUTO-CI MPn and infrastructure                
  Benjamin Helmich-Paris : MC-RPA, TRAH-(SCF,CASSCF), AVAS, COSX integrals, SCF dyn. polar., MC-PDFT, srDFT 
  Lee Huntington         : MR-EOM, pCC                                   
  Robert Izsak           : Overlap fitted RIJCOSX, COSX-SCS-MP3, EOM     
  Riya Kayal             : Wick's Theorem for AUTO-CI, AUTO-CI UHF-CCSDT 
  Emily Kempfer          : AUTO-CI RHF CISDT and CCSDT, approximate NEVPT4
  Christian Kollmar      : KDIIS, OOCD, Brueckner-CCSD(T), CCSD density, CASPT2, CASPT2-K, improved NEVPT2 
  Axel Koslowski         : Symmetry handling                             
  Simone Kossmann        : meta-GGA functionals, TD-DFT gradient, OOMP2, (MP2 Hessian; deprecated post 5.0) 
  Lucas Lang             : DCDCAS, Hyperfine gauge corrections, ICE-SOC+SSC
  Marvin Lechner         : AUTO-CI (C++ implementation), FIC-MRCC        
  Spencer Leger          : CASSCF response                               
  Dagmar Lenk            : GEPOL surface, SMD, ORCA-2-JSON               
  Dimitrios Liakos       : Extrapolation schemes; Compound Job, Property file
  Dimitrios Manganas     : Further ROCIS development; embedding schemes. LFT, Crystal Embedding 
  Dimitrios Pantazis     : SARC Basis sets                               
  Anastasios Papadopoulos: AUTO-CI, single reference methods and gradients 
  Taras Petrenko         : pre 6.0 DFT Hessian and TD-DFT gradient,  ECA, NRVS 
  Petra Pikulova         : Analytic Raman intensities                    
  Peter Pinski           : DLPNO-MP2, DLPNO-MP2 Gradient                 
  Shashank Vittal Rao    : ES-AILFT, MagRelax                            
  Christoph Reimann      : Effective Core Potentials                     
  Marius Retegan         : Local ZFS, SOC                                
  Christoph Riplinger    : Optimizer, TS searches, QM/MM, DLPNO-CCSD(T), (RO)-DLPNO pert. Triples 
  Michael Roemelt        : Original ROCIS implementation, recursive CI coupling coefficients
  Masaaki Saitow         : Open-shell DLPNO-CCSD energy and density      
  Barbara Sandhoefer     : DKH picture change effects                    
  Yorick L. A. Schmerwitz: GMF and freeze-and-release deltaSCF, NEB S-IDPP initial path                    
  Kantharuban Sivalingam : CASSCF convergence/infrastructure, NEVPT2, NEVPT3, NEVPT4(SD), FIC-MRCI and CEPA variants
  Bernardo de Souza      : ESD, SOC TD-DFT                               
  Georgi L. Stoychev     : AutoAux, RI-MP2 NMR, DLPNO-MP2 response, X2C  
  Van Anh Tran           : RI-MP2 g-tensors                              
  Willem Van den Heuvel  : Paramagnetic NMR                              
  Zikuan Wang            : NOTCH, Electric field optimization            
  Frank Wennmohs         : Technical directorship and infrastructure     
  Hang Xu                : AUTO-CI-Response properties                   
                                                                         
[FACCTs GmbH]                                                            
  Markus Bursch, Nicolas Foglia, Miquel Garcia-Rates, Ingolf Harden, Hagen Neugebauer, Anastasios Papadopoulos, 
  Christoph Riplinger, Bernardo de Souza, Georgi L. Stoychev                                                    
                                                                 
  APM, various basis sets, CI-OPT, improved COSX, DLPNO-Multilevel,           
  DOCKER, DRACO, updates on ESD, Fragmentator, GOAT, IRC, LR-CPCM, L-BFGS, MBIS, meta-GGA TD-DFT gradient, ML-optimized integration grids, 
  MM, NACMEs, nearIR, NEB, NEB-TS, NL-DFT gradient (VV10), 2- and 3-layer-ONIOM, interface openCOSMO-RS, QMMM,   
  Crystal-QMMM, RESP, rigid body optimization, SF, symmetry and pop. for TD-DFT, various functionals, SOLVATOR                                   
                                                                         
[Other institutions]                                                     
  V. Asgeirsson          : NEB                                           
  Christoph Bannwarth    : sTDA-DFT, sTD-DFT, PBEh-3c, B97-3c, D3        
  Giovanni Bistoni       : ETS/NOCV, ADLD/ADEX, COVALED                  
  Martin Brehm           : Molecular dynamics                            
  Ronald Cardenas        : ETS/NOCV                                      
  Martina Colucci        : COVALED                                       
  Sebastian Ehlert       : rSCAN, r2SCAN, r2SCAN-3c, D4, dhf basis sets  
  Marvin Friede          : D4 for Fr, Ra, Ac-Lr                          
  Lars Goerigk           : TD-DFT with DH, B97 family of functionals     
  Stefan Grimme          : VdW corrections, initial TS optimization, DFT functionals, gCP, sTDA/sTD-DF 
  Waldemar Hujo          : DFT-NL                                        
  H. Jonsson             : NEB                                           
  Holger Kruse           : gCP                                           
  Marcel Mueller         : wB97X-3c, vDZP basis set                      
  Hagen Neugebauer       : wr2SCAN, Native XTB                           
  Gianluca Regni         : ADLD/ADEX                                     
  Tobias Risthaus        : pre 6.0 range-separated hybrid DFT and stability analysis
  Lukas Wittmann         : regularized MP2, r2SCAN double-hybrids, wr2SCAN        
                                                                         
We gratefully acknowledge several colleagues who have allowed us to      
interface, adapt or use parts of their codes:                            
  Ed Valeev, F. Pavosevic, A. Kumar             : LibInt (2-el integral package), F12 methods 
  Garnet Chan, S. Sharma, J. Yang, R. Olivares  : DMRG                   
  Ulf Ekstrom                                   : XCFun DFT Library      
  Mihaly Kallay                                 : mrcc  (arbitrary order and MRCC methods)
  Frank Weinhold                                : gennbo (NPA and NBO analysis)           
  Simon Mueller                                 : openCOSMO-RS                            
  Christopher J. Cramer and Donald G. Truhlar   : smd solvation model                     
  S Lehtola, MJT Oliveira, MAL Marques          : LibXC Library                           
  Liviu Ungur et al                             : ANISO software                          


 Your calculation uses the libint2 library for the computation of 2-el integrals
 For citations please refer to: http://libint.valeyev.net

 Your ORCA version has been built with support for libXC version: 7.0.0
 For citations please refer to: https://libxc.gitlab.io

 This ORCA versions uses:
   CBLAS   interface :  Fast vector & matrix operations
   LAPACKE interface :  Fast linear algebra routines
   SCALAPACK package :  Parallel linear algebra routines
   Shared memory     :  Shared parallel matrices
   BLAS/LAPACK       :  OpenBLAS 0.3.29  USE64BITINT DYNAMIC_ARCH NO_AFFINITY SkylakeX SINGLE_THREADED
        Core in use  :  SkylakeX
   Copyright (c) 2011-2014, The OpenBLAS Project


  ***********************************
  * Starting time: Sat Mar 28 19:57:52 2026
  * Host name:     f2e4424bbae6
  * Process ID:    662
  * Working dir.:  /kaggle/working
  ***********************************

NOTE: MaxCore=3000 MB was set to SCF,MP2,MDCI,CIPSI,MRCI,RASCI and CIS
      => If you want to overwrite this, your respective input block should be placed after the MaxCore statement
Your calculation utilizes the atom-pairwise dispersion correction
with the Becke-Johnson damping scheme (D3BJ)


Warning: RI is on but no J-basis has been assigned. Assigning Def2/J (nothing to worry about!)
================================================================================

----- Orbital basis set information -----
Your calculation utilizes the basis: 6-31G(d,p)
   H-He, Li-Ne : W. J. Hehre, R. Ditchfield and J.A. Pople, J. Chem. Phys. 56, 2257 (1972).
                 Note: He and Ne are unpublished basis sets taken from the Gaussian program.
                 Note: Li and B from J. D. Dill and J. A. Pople, J. Chem. Phys. 62, 2921 (1975).
   Na - Ar     : M. M. Francl, W. J. Pietro, W. J. Hehre, J. S. Binkley, M. S. Gordon, 
                 D. J. DeFrees and J. A. Pople, J. Chem. Phys. 77, 3654 (1982).
   K - Zn      : V. A. Rassolov, J. A. Pople, M. A. Ratner, and T. L. Windus, J. Chem. Phys. 109, 1223 (1998).

----- AuxJ basis set information -----
Your calculation utilizes the auxiliary basis: def2/J
   H-Rn: F. Weigend, Phys. Chem. Chem. Phys. 8, 1057 (2006).
   Fr-Lr: K. Eichkorn, F. Weigend, O. Treutler, R. Ahlrichs; Theor. Chem. Acc. 97, 119 (1997).

================================================================================
                                        WARNINGS
                       Please study these warnings very carefully!
================================================================================


================================================================================
                                       INPUT FILE
================================================================================
NAME = /kaggle/working/Phe-F3-2/Phe-F3_InterFrag.inp
|  1> 
|  2> !RKS B3LYP 6-31G(d,p) TightSCF D3BJ # def2-TZVPP
|  3> 
|  4> %pal nprocs 2 end
|  5> %maxcore 3000
|  6> 
|  7> %elprop
|  8>   Polar 1      # polarizability via CP-SCF
|  9> end
| 10> 
| 11> %output
| 12>   PrintLevel Normal
| 13>   Print[ P_OrbEn ] 2
| 14> end
| 15> 
| 16> *xyz 0 1
| 17>   F      2.920126    1.702245   -1.048221
| 18>   F      1.934728   -2.512390    0.770260
| 19>   F      3.644148   -0.856789   -0.529321
| 20>   O     -1.854974   -0.757800   -1.688097
| 21>   O     -3.207040   -1.363714    0.012785
| 22>   N     -3.816716    1.396244    0.232971
| 23>   C     -1.453597    1.014809    1.045650
| 24>   C     -2.474712    0.937242   -0.124852
| 25>   C     -0.076353    0.529461    0.669626
| 26>   C      0.301618   -0.794120    0.931861
| 27>   C      0.809142    1.379246   -0.006972
| 28>   C     -2.573173   -0.506080   -0.581345
| 29>   C      2.049533    0.902064   -0.402202
| 30>   C      1.548848   -1.244936    0.524891
| 31>   C      2.436242   -0.409266   -0.144003
| 32>   H     -1.849378    0.422636    1.877041
| 33>   H     -1.413842    2.061622    1.362702
| 34>   H     -2.097635    1.537209   -0.956263
| 35>   H     -0.365770   -1.478168    1.444929
| 36>   H      0.545235    2.408326   -0.226290
| 37>   H     -3.727884    2.327658    0.636307
| 38>   H     -4.152610    0.799880    0.989060
| 39>   H     -1.922436   -1.711077   -1.885016
| 40> 
| 41> *
| 42> 
| 43>                          ****END OF INPUT****
================================================================================

                       ****************************
                       * Single Point Calculation *
                       ****************************

---------------------------------
CARTESIAN COORDINATES (ANGSTROEM)
---------------------------------
  F      2.920126    1.702245   -1.048221
  F      1.934728   -2.512390    0.770260
  F      3.644148   -0.856789   -0.529321
  O     -1.854974   -0.757800   -1.688097
  O     -3.207040   -1.363714    0.012785
  N     -3.816716    1.396244    0.232971
  C     -1.453597    1.014809    1.045650
  C     -2.474712    0.937242   -0.124852
  C     -0.076353    0.529461    0.669626
  C      0.301618   -0.794120    0.931861
  C      0.809142    1.379246   -0.006972
  C     -2.573173   -0.506080   -0.581345
  C      2.049533    0.902064   -0.402202
  C      1.548848   -1.244936    0.524891
  C      2.436242   -0.409266   -0.144003
  H     -1.849378    0.422636    1.877041
  H     -1.413842    2.061622    1.362702
  H     -2.097635    1.537209   -0.956263
  H     -0.365770   -1.478168    1.444929
  H      0.545235    2.408326   -0.226290
  H     -3.727884    2.327658    0.636307
  H     -4.152610    0.799880    0.989060
  H     -1.922436   -1.711077   -1.885016

----------------------------
CARTESIAN COORDINATES (A.U.)
----------------------------
  NO LB      ZA    FRAG     MASS         X           Y           Z
   0 F     9.0000    0    18.998    5.518238    3.216777   -1.980851
   1 F     9.0000    0    18.998    3.656106   -4.747729    1.455580
   2 F     9.0000    0    18.998    6.886442   -1.619097   -1.000272
   3 O     8.0000    0    15.999   -3.505393   -1.432034   -3.190041
   4 O     8.0000    0    15.999   -6.060427   -2.577046    0.024160
   5 N     7.0000    0    14.007   -7.212548    2.638519    0.440251
   6 C     6.0000    0    12.011   -2.746900    1.917711    1.975992
   7 C     6.0000    0    12.011   -4.676528    1.771131   -0.235936
   8 C     6.0000    0    12.011   -0.144286    1.000536    1.265410
   9 C     6.0000    0    12.011    0.569975   -1.500669    1.760962
  10 C     6.0000    0    12.011    1.529057    2.606397   -0.013175
  11 C     6.0000    0    12.011   -4.862592   -0.956353   -1.098583
  12 C     6.0000    0    12.011    3.873056    1.704654   -0.760052
  13 C     6.0000    0    12.011    2.926899   -2.352588    0.991900
  14 C     6.0000    0    12.011    4.603830   -0.773401   -0.272126
  15 H     1.0000    0     1.008   -3.494818    0.798666    3.547093
  16 H     1.0000    0     1.008   -2.671774    3.895901    2.575134
  17 H     1.0000    0     1.008   -3.963956    2.904904   -1.807075
  18 H     1.0000    0     1.008   -0.691205   -2.793333    2.730520
  19 H     1.0000    0     1.008    1.030345    4.551077   -0.427626
  20 H     1.0000    0     1.008   -7.044680    4.398636    1.202446
  21 H     1.0000    0     1.008   -7.847296    1.511554    1.869053
  22 H     1.0000    0     1.008   -3.632878   -3.233467   -3.562164

--------------------------------
INTERNAL COORDINATES (ANGSTROEM)
--------------------------------
 F      0   0   0     0.000000000000     0.00000000     0.00000000
 F      1   0   0     4.694787593597     0.00000000     0.00000000
 F      1   2   0     2.709634676417    30.01164400     0.00000000
 O      2   1   3     4.846023777939    69.05982187   223.54929279
 O      4   2   1     2.255706944990    89.36797620   225.45704545
 N      5   4   2     2.835058176006    85.75416569   118.80208853
 C      6   5   4     2.527898578746    71.15821890   288.61642201
 C      6   5   4     1.462769589289    58.54891210   324.05030133
 C      7   6   5     1.507898459849   145.30720616    60.70377574
 C      9   7   6     1.401247992194   120.24701787   265.25505087
 C      9   7   6     1.401435262456   120.15375326    81.93365205
 C      5   4   2     1.220784136752    29.89888068    99.89339951
 C      1   2   3     1.347428051055    31.30150903   179.87511193
 C      2   1   3     1.347423082286    31.25432530   180.03155359
 C      3   1   2     1.344538471554    60.03210933     0.10756553
 H      7   6   5     1.094770504156    89.30128541   294.59004899
 H      7   6   5     1.094495266183    89.01248972   186.48450303
 H      8   6   5     1.092424695775   109.30000494   135.44967753
 H     10   9   7     1.084696815461   121.21408674   357.29963194
 H     11   9   7     1.084782437253   121.27346772     3.19278714
 H      6   5   4     1.018873442836   154.41429954   260.98870970
 H      6   5   4     1.019875176506    63.84194416   190.24410380
 H      4   2   1     0.975738311605    78.62176520   144.23045425

---------------------------
INTERNAL COORDINATES (A.U.)
---------------------------
 F      0   0   0     0.000000000000     0.00000000     0.00000000
 F      1   0   0     8.871862808829     0.00000000     0.00000000
 F      1   2   0     5.120467461404    30.01164400     0.00000000
 O      2   1   3     9.157657778776    69.05982187   223.54929279
 O      4   2   1     4.262668364415    89.36797620   225.45704545
 N      5   4   2     5.357483526385    85.75416569   118.80208853
 C      6   5   4     4.777036008159    71.15821890   288.61642201
 C      6   5   4     2.764233920785    58.54891210   324.05030133
 C      7   6   5     2.849515126877   145.30720616    60.70377574
 C      9   7   6     2.647974950953   120.24701787   265.25505087
 C      9   7   6     2.648328840461   120.15375326    81.93365205
 C      5   4   2     2.306947687096    29.89888068    99.89339951
 C      1   2   3     2.546270001658    31.30150903   179.87511193
 C      2   1   3     2.546260612045    31.25432530   180.03155359
 C      3   1   2     2.540809487758    60.03210933     0.10756553
 H      7   6   5     2.068816432351    89.30128541   294.59004899
 H      7   6   5     2.068296307960    89.01248972   186.48450303
 H      8   6   5     2.064383496947   109.30000494   135.44967753
 H     10   9   7     2.049779919558   121.21408674   357.29963194
 H     11   9   7     2.049941721296   121.27346772     3.19278714
 H      6   5   4     1.925391772085   154.41429954   260.98870970
 H      6   5   4     1.927284774381    63.84194416   190.24410380
 H      4   2   1     1.843878187308    78.62176520   144.23045425

---------------------
BASIS SET INFORMATION
---------------------
There are 5 groups of distinct atoms

 Group   1 Type F   : 10s4p1d contracted to 3s2p1d pattern {631/31/1}
 Group   2 Type O   : 10s4p1d contracted to 3s2p1d pattern {631/31/1}
 Group   3 Type N   : 10s4p1d contracted to 3s2p1d pattern {631/31/1}
 Group   4 Type C   : 10s4p1d contracted to 3s2p1d pattern {631/31/1}
 Group   5 Type H   : 4s1p contracted to 2s1p pattern {31/1}

Atom   0F    basis set group =>   1
Atom   1F    basis set group =>   1
Atom   2F    basis set group =>   1
Atom   3O    basis set group =>   2
Atom   4O    basis set group =>   2
Atom   5N    basis set group =>   3
Atom   6C    basis set group =>   4
Atom   7C    basis set group =>   4
Atom   8C    basis set group =>   4
Atom   9C    basis set group =>   4
Atom  10C    basis set group =>   4
Atom  11C    basis set group =>   4
Atom  12C    basis set group =>   4
Atom  13C    basis set group =>   4
Atom  14C    basis set group =>   4
Atom  15H    basis set group =>   5
Atom  16H    basis set group =>   5
Atom  17H    basis set group =>   5
Atom  18H    basis set group =>   5
Atom  19H    basis set group =>   5
Atom  20H    basis set group =>   5
Atom  21H    basis set group =>   5
Atom  22H    basis set group =>   5
---------------------------------
AUXILIARY/J BASIS SET INFORMATION
---------------------------------
There are 5 groups of distinct atoms

 Group   1 Type F   : 12s5p4d2f1g contracted to 6s4p3d1f1g pattern {711111/2111/211/2/1}
 Group   2 Type O   : 12s5p4d2f1g contracted to 6s4p3d1f1g pattern {711111/2111/211/2/1}
 Group   3 Type N   : 12s5p4d2f1g contracted to 6s4p3d1f1g pattern {711111/2111/211/2/1}
 Group   4 Type C   : 12s5p4d2f1g contracted to 6s4p3d1f1g pattern {711111/2111/211/2/1}
 Group   5 Type H   : 5s2p1d contracted to 3s1p1d pattern {311/2/1}

Atom   0F    basis set group =>   1
Atom   1F    basis set group =>   1
Atom   2F    basis set group =>   1
Atom   3O    basis set group =>   2
Atom   4O    basis set group =>   2
Atom   5N    basis set group =>   3
Atom   6C    basis set group =>   4
Atom   7C    basis set group =>   4
Atom   8C    basis set group =>   4
Atom   9C    basis set group =>   4
Atom  10C    basis set group =>   4
Atom  11C    basis set group =>   4
Atom  12C    basis set group =>   4
Atom  13C    basis set group =>   4
Atom  14C    basis set group =>   4
Atom  15H    basis set group =>   5
Atom  16H    basis set group =>   5
Atom  17H    basis set group =>   5
Atom  18H    basis set group =>   5
Atom  19H    basis set group =>   5
Atom  20H    basis set group =>   5
Atom  21H    basis set group =>   5
Atom  22H    basis set group =>   5


           ************************************************************
           *        Program running with 2 parallel MPI-processes     *
           *              working on a common directory               *
           ************************************************************
------------------------------------------------------------------------------
                             ORCA STARTUP CALCULATIONS
                           -- RI-GTO INTEGRALS CHOSEN --
------------------------------------------------------------------------------
------------------------------------------------------------------------------
                   ___                                                        
                  /   \      - P O W E R E D   B Y -                         
                 /     \                                                     
                 |  |  |   _    _      __       _____    __    __             
                 |  |  |  | |  | |    /  \     |  _  \  |  |  /  |          
                  \  \/   | |  | |   /    \    | | | |  |  | /  /          
                 / \  \   | |__| |  /  /\  \   | |_| |  |  |/  /          
                |  |  |   |  __  | /  /__\  \  |    /   |      \           
                |  |  |   | |  | | |   __   |  |    \   |  |\   \          
                \     /   | |  | | |  |  |  |  | |\  \  |  | \   \       
                 \___/    |_|  |_| |__|  |__|  |_| \__\ |__|  \__/        
                                                                              
                      - O R C A' S   B I G   F R I E N D -                    
                                      &                                       
                       - I N T E G R A L  F E E D E R -                       
                                                                              
 v1 FN, 2020, v2 2021, v3 2022-2024                                           
------------------------------------------------------------------------------


----------------------
SHARK INTEGRAL PACKAGE
----------------------

Number of atoms                             ...     23
Number of basis functions                   ...    250
Number of shells                            ...    114
Maximum angular momentum                    ...      2
Integral batch strategy                     ... SHARK/LIBINT Hybrid
RI-J (if used) integral strategy            ... SPLIT-RIJ (Revised 2003 algorithm where possible)
Printlevel                                  ...      1
Contraction scheme used                     ... SEGMENTED contraction
Prescreening option                         ... SCHWARTZ
   Thresh                                   ... 2.500e-11
   Tcut                                     ... 2.500e-12
   Tpresel                                  ... 2.500e-12 
Coulomb Range Separation                    ... NOT USED
Exchange Range Separation                   ... NOT USED
Multipole approximations                    ... NOT USED
Finite Nucleus Model                        ... NOT USED
CABS basis                                  ... NOT available
Auxiliary Coulomb fitting basis             ... AVAILABLE
   # of basis functions in Aux-J            ...    823
   # of shells in Aux-J                     ...    265
   Maximum angular momentum in Aux-J        ...      4
Auxiliary J/K fitting basis                 ... NOT available
Auxiliary Correlation fitting basis         ... NOT available
Auxiliary 'external' fitting basis          ... NOT available

Checking pre-screening integrals            ... done (  0.0 sec) Dimension = 114
   => SHARK Basis and OBASIS are compatible. Storing Pre-screening
Shell pair information
Shell pair cut-off parameter TPreSel        ...   2.5e-12
Total number of shell pairs                 ...      6555
Shell pairs after pre-screening             ...      5307
Total number of primitive shell pairs       ...     35584
Primitive shell pairs kept                  ...     17156
          la=0 lb=0:   1493 shell pairs
          la=1 lb=0:   1911 shell pairs
          la=1 lb=1:    638 shell pairs
          la=2 lb=0:    704 shell pairs
          la=2 lb=1:    468 shell pairs
          la=2 lb=2:     93 shell pairs

Checking whether 4 symmetric matrices of dimension 250 fit in memory
:Max Core in MB      =   3000.00
 MB in use           =     10.72
 MB left             =   2989.28
 MB needed           =      0.96
 Data fit in memory  = YES
Calculating RI/J V-Matrix + Cholesky decomp.... done (  0.0 sec)
Calculating Nuclear repulsion               ... done (  0.0 sec) ENN=   1014.791021408866 Eh

Diagonalization of the overlap matrix:
Smallest eigenvalue                        ... 5.115e-04
Time for diagonalization                   ...    0.008 sec
Threshold for overlap eigenvalues          ... 1.000e-07
Number of eigenvalues below threshold      ... 0
Time for construction of square roots      ...    0.003 sec
Total time needed                          ...    0.012 sec

-------------------
DFT GRID GENERATION
-------------------

General Integration Accuracy     IntAcc      ... 4.388
Radial Grid Type                 RadialGrid  ... OptM3 with GC (2021)
Angular Grid (max. ang.)         AngularGrid ... 4 (Lebedev-302)
Angular grid pruning method      GridPruning ... 4 (adaptive)
Weight generation scheme         WeightScheme... mBecke (2022)
Basis function cutoff            BFCut       ... 1.0000e-11
Integration weight cutoff        WCut        ... 1.0000e-14
Partially contracted basis set               ... off
Rotationally invariant grid construction     ... off
Angular grids for H and He will be reduced by one unit

Total number of grid points                  ...   115861
Total number of batches                      ...     1823
Average number of points per batch           ...       63
Average number of grid points per atom       ...     5037

--------------------
COSX GRID GENERATION
--------------------

GRIDX 1
-------
General Integration Accuracy     IntAcc      ... 3.816
Radial Grid Type                 RadialGrid  ... OptM3 with GC (2021)
Angular Grid (max. ang.)         AngularGrid ... 1 (Lebedev-50)
Angular grid pruning method      GridPruning ... 4 (adaptive)
Weight generation scheme         WeightScheme... mBecke (2022)
Basis function cutoff            BFCut       ... 1.0000e-11
Integration weight cutoff        WCut        ... 1.0000e-14
Partially contracted basis set               ... on
Rotationally invariant grid construction     ... off
Angular grids for H and He will be reduced by one unit

Total number of grid points                  ...    14667
Total number of batches                      ...      128
Average number of points per batch           ...      114
Average number of grid points per atom       ...      638
UseSFitting                                  ... on

GRIDX 2
-------
General Integration Accuracy     IntAcc      ... 4.020
Radial Grid Type                 RadialGrid  ... OptM3 with GC (2021)
Angular Grid (max. ang.)         AngularGrid ... 2 (Lebedev-110)
Angular grid pruning method      GridPruning ... 4 (adaptive)
Weight generation scheme         WeightScheme... mBecke (2022)
Basis function cutoff            BFCut       ... 1.0000e-11
Integration weight cutoff        WCut        ... 1.0000e-14
Partially contracted basis set               ... on
Rotationally invariant grid construction     ... off
Angular grids for H and He will be reduced by one unit

Total number of grid points                  ...    32824
Total number of batches                      ...      267
Average number of points per batch           ...      122
Average number of grid points per atom       ...     1427
UseSFitting                                  ... on

GRIDX 3
-------
General Integration Accuracy     IntAcc      ... 4.338
Radial Grid Type                 RadialGrid  ... OptM3 with GC (2021)
Angular Grid (max. ang.)         AngularGrid ... 3 (Lebedev-194)
Angular grid pruning method      GridPruning ... 4 (adaptive)
Weight generation scheme         WeightScheme... mBecke (2022)
Basis function cutoff            BFCut       ... 1.0000e-11
Integration weight cutoff        WCut        ... 1.0000e-14
Partially contracted basis set               ... on
Rotationally invariant grid construction     ... off
Angular grids for H and He will be reduced by one unit

Total number of grid points                  ...    72145
Total number of batches                      ...      575
Average number of points per batch           ...      125
Average number of grid points per atom       ...     3137
UseSFitting                                  ... on
Grids setup in   2.4 sec
Initializing property integral containers    ... done (  0.0 sec)

SHARK setup successfully completed in   2.6 seconds

Maximum memory used throughout the entire STARTUP-calculation: 39.7 MB


           ************************************************************
           *        Program running with 2 parallel MPI-processes     *
           *              working on a common directory               *
           ************************************************************
-------------------------------------------------------------------------------
                                 ORCA GUESS
                   Start orbitals & Density for SCF / CASSCF
-------------------------------------------------------------------------------

------------
SCF SETTINGS
------------
Hamiltonian:
 Density Functional     Method          .... DFT(GTOs)
 Exchange Functional    Exchange        .... B88
   X-Alpha parameter    XAlpha          ....  0.666667
   Becke's b parameter  XBeta           ....  0.004200
 Correlation Functional Correlation     .... LYP
 LDA part of GGA corr.  LDAOpt          .... VWN-5
 Gradients option       PostSCFGGA      .... off
 Hybrid DFT is turned on
   Fraction HF Exchange ScalHFX         ....  0.200000
   Scaling of DF-GGA-X  ScalDFX         ....  0.720000
   Scaling of DF-GGA-C  ScalDFC         ....  0.810000
   Scaling of DF-LDA-C  ScalLDAC        ....  1.000000
   Perturbative correction              ....  0.000000
   NL short-range parameter             ....  4.800000
 RI-approximation to the Coulomb term is turned on
   Number of AuxJ basis functions       .... 823
   RIJ-COSX (HFX calculated with COS-X)).... on


General Settings:
 Integral files         IntName         .... /kaggle/working/Phe-F3-2/Phe-F3_InterFrag
 Hartree-Fock type      HFTyp           .... RHF
 Total Charge           Charge          ....    0
 Multiplicity           Mult            ....    1
 Number of Electrons    NEL             ....  112
 Basis Dimension        Dim             ....  250
 Nuclear Repulsion      ENuc            ....   1014.7910214089 Eh

Convergence Acceleration:
 AO-DIIS                CNVDIIS         .... on
   Start iteration      DIISMaxIt       ....    12
   Startup error        DIISStart       ....  0.200000
   # of expansion vecs  DIISMaxEq       ....     5
   Bias factor          DIISBfac        ....   1.050
   Max. coefficient     DIISMaxC        ....  10.000
 MO-DIIS                CNVKDIIS        .... off
 Trust-Rad. Augm. Hess. CNVTRAH         .... auto
   Auto Start mean grad. ratio tolernc. ....  1.125000
   Auto Start start iteration           ....    50
   Auto Start num. interpolation iter.  ....    10
   Max. Number of Micro iterations      ....    24
   Max. Number of Macro iterations      .... Maxiter - #DIIS iter
   Number of Davidson start vectors     ....     2
   Converg. threshold    (grad. norm)   ....   1.000e-05
   Grad. Scal. Fac. for Micro threshold ....   0.100
   Minimum threshold for Micro iter.    ....   1.000e-02
   NR start threshold (gradient norm)   ....   1.000e-04
   Initial trust radius                 ....   0.400
   Minimum AH scaling param. (alpha)    ....   1.000
   Maximum AH scaling param. (alpha)    .... 1000.000
   Quad. conv. algorithm                .... NR
   White noise on init. David. guess    .... on
   Maximum white noise                  ....   0.010
   Pseudo random numbers                .... off
   Inactive MOs                         .... canonical
   Orbital update algorithm             .... Taylor
   Preconditioner                       .... Diag
   Full preconditioner red. dimension   ....   250
 SOSCF                 CNVSOSCF           .... on
   Start iteration     SOSCFMaxIt         ....   150
   Startup grad/error  SOSCFStart         ....  0.003300
   Hessian update      SOSCFHessUp        .... L-BFGS
   Autom. constraints  SOSCFAutoConstrain .... off
 Level Shifting         CNVShift        .... on
   Level shift para.    LevelShift      ....    0.2500
   Turn off err/grad.   ShiftErr        ....    0.0010
 Zerner damping         CNVZerner       .... off
 Static damping         CNVDamp         .... on
   Fraction old density DampFac         ....    0.7000
   Max. Damping (<1)    DampMax         ....    0.9800
   Min. Damping (>=0)   DampMin         ....    0.0000
   Turn off err/grad.   DampErr         ....    0.1000

SCF Procedure:
 Maximum # iterations   MaxIter         ....   125
 SCF integral mode      SCFMode         .... Direct
   Integral package                     .... SHARK and LIBINT hybrid scheme
 Reset frequency        DirectResetFreq ....    20
 Integral Threshold     Thresh          ....  2.500e-11 Eh
 Primitive CutOff       TCut            ....  2.500e-12 Eh

Convergence Tolerance:
 Convergence Check Mode ConvCheckMode   .... Total+1el-Energy
 Convergence forced     ConvForced      .... 0
 Energy Change          TolE            ....  1.000e-08 Eh
 1-El. energy change                    ....  1.000e-05 Eh
 Orbital Gradient       TolG            ....  1.000e-05
 Orbital Rotation angle TolX            ....  1.000e-05
 DIIS Error             TolErr          ....  5.000e-07

------------------------------
INITIAL GUESS: MODEL POTENTIAL
------------------------------
Loading Hartree-Fock densities                     ... done
Calculating cut-offs                               ... done
Initializing the effective Hamiltonian             ... done
Setting up the integral package (SHARK)            ... done
Starting the Coulomb interaction                   ... done (   0.2 sec)
Making the grid                                    ... done (   0.4 sec)
Mapping shells                                     ... done
Starting the XC term evaluation                    ... done (   0.2 sec)
  promolecular density results
     # of electrons  =    112.005554019
     EX              =   -101.810021588
     EC              =     -3.960734651
     EX+EC           =   -105.770756239
Transforming the Hamiltonian                       ... done (   0.0 sec)
Diagonalizing the Hamiltonian                      ... done (   0.0 sec)
Back transforming the eigenvectors                 ... done (   0.0 sec)
Now organizing SCF variables                       ... done
                      ------------------
                      INITIAL GUESS DONE (   0.8 sec)
                      ------------------
             **** ENERGY FILE WAS UPDATED (/kaggle/working/Phe-F3-2/Phe-F3_InterFrag.en.tmp) ****
Finished Guess after   1.2 sec
Maximum memory used throughout the entire GUESS-calculation: 15.8 MB


           ************************************************************
           *        Program running with 2 parallel MPI-processes     *
           *              working on a common directory               *
           ************************************************************

-------------------------------------------------------------------------------------------
                                      ORCA LEAN-SCF
                              memory conserving SCF solver
-------------------------------------------------------------------------------------------

----------------------------------------D-I-I-S--------------------------------------------
Iteration    Energy (Eh)           Delta-E    RMSDP     MaxDP     DIISErr   Damp  Time(sec)
-------------------------------------------------------------------------------------------
               ***  Starting incremental Fock matrix formation  ***
    1    -851.6973794733579552     0.00e+00  3.60e-03  9.22e-02  2.64e-01  0.700   7.3
    2    -851.8697824656891271    -1.72e-01  2.38e-03  5.13e-02  1.13e-01  0.700   3.6
                               ***Turning on AO-DIIS***
    3    -851.9332358253540178    -6.35e-02  9.36e-04  1.60e-02  3.74e-02  0.700   3.6
    4    -851.9721494546246277    -3.89e-02  1.59e-03  2.20e-02  1.62e-02  0.000   3.4
    5    -852.0589442173478574    -8.68e-02  3.57e-04  5.41e-03  6.33e-03  0.000   3.4
                              *** Initializing SOSCF ***
---------------------------------------S-O-S-C-F--------------------------------------
Iteration    Energy (Eh)           Delta-E    RMSDP     MaxDP     MaxGrad    Time(sec)
--------------------------------------------------------------------------------------
    6    -852.0594500933731297    -5.06e-04  1.07e-04  1.98e-03  1.59e-03     3.2
               *** Restarting incremental Fock matrix formation ***
    7    -852.0594523143194010    -2.22e-06  9.61e-05  2.43e-03  5.75e-04     7.3
    8    -852.0594407546897173     1.16e-05  4.91e-05  1.80e-03  1.45e-03     5.2
    9    -852.0594597637883680    -1.90e-05  1.69e-05  3.63e-04  9.90e-05     4.8
   10    -852.0594594837353952     2.80e-07  9.56e-06  1.90e-04  1.11e-04     4.4
   11    -852.0594600166092505    -5.33e-07  3.25e-06  5.80e-05  1.88e-05     4.0
   12    -852.0594600053067325     1.13e-08  1.85e-06  3.13e-05  2.85e-05     3.5
   13    -852.0594600285643310    -2.33e-08  5.60e-07  1.50e-05  3.61e-06     3.3
   14    -852.0594600215468972     7.02e-09  3.43e-07  8.92e-06  5.43e-06     2.6
                 **** Energy Check signals convergence ****

               *****************************************************
               *                     SUCCESS                       *
               *           SCF CONVERGED AFTER  14 CYCLES          *
               *****************************************************

Recomputing exchange energy using gridx3       ... done (   12.508 sec)
Old exchange energy                            :    -20.572218522 Eh
New exchange energy                            :    -20.572182545 Eh
Exchange energy change after final integration :      0.000035977 Eh
Total energy after final integration           :   -852.059424054 Eh
             **** ENERGY FILE WAS UPDATED (/kaggle/working/Phe-F3-2/Phe-F3_InterFrag.en.tmp) ****

----------------
TOTAL SCF ENERGY
----------------

Total Energy       :       -852.05942405399003 Eh          -23185.71567 eV

Components:
Nuclear Repulsion  :       1014.79102140886641 Eh           27613.86755 eV
Electronic Energy  :      -1866.85048143946983 Eh          -50799.58420 eV
One Electron Energy:      -3186.00414115770400 Eh          -86695.58020 eV
Two Electron Energy:       1319.15365971823417 Eh           35895.99600 eV

Virial components:
Potential Energy   :      -1699.43309235386732 Eh          -46243.92544 eV
Kinetic Energy     :        847.37366829987741 Eh           23058.20977 eV
Virial Ratio       :          2.00552973962893

DFT components:
N(Alpha)           :       56.000009777756 electrons
N(Beta)            :       56.000009777756 electrons
N(Total)           :      112.000019555513 electrons
E(X)               :      -81.819620548806 Eh       
E(C)               :       -4.654544026361 Eh       
E(XC)              :      -86.474164575167 Eh       

---------------
SCF CONVERGENCE
---------------

  Last Energy change         ...   -7.0174e-09  Tolerance :   1.0000e-08
  Last MAX-Density change    ...    8.9186e-06  Tolerance :   1.0000e-07
  Last RMS-Density change    ...    3.4267e-07  Tolerance :   5.0000e-09
  Last DIIS Error            ...    1.5895e-03  Tolerance :   5.0000e-07
  Last Orbital Gradient      ...    5.4341e-06  Tolerance :   1.0000e-05
  Last Orbital Rotation      ...    5.2251e-06  Tolerance :   1.0000e-05


----------------
ORBITAL ENERGIES
----------------

  NO   OCC          E(Eh)            E(eV) 
   0   2.0000     -24.715559      -672.5445 
   1   2.0000     -24.713928      -672.5002 
   2   2.0000     -24.713740      -672.4950 
   3   2.0000     -19.201515      -522.4998 
   4   2.0000     -19.141437      -520.8650 
   5   2.0000     -14.324033      -389.7767 
   6   2.0000     -10.321671      -280.8669 
   7   2.0000     -10.287274      -279.9310 
   8   2.0000     -10.286831      -279.9189 
   9   2.0000     -10.283275      -279.8221 
  10   2.0000     -10.234822      -278.5037 
  11   2.0000     -10.217706      -278.0379 
  12   2.0000     -10.205645      -277.7097 
  13   2.0000     -10.204973      -277.6914 
  14   2.0000     -10.203872      -277.6615 
  15   2.0000      -1.240102       -33.7449 
  16   2.0000      -1.229848       -33.4659 
  17   2.0000      -1.220992       -33.2249 
  18   2.0000      -1.111956       -30.2579 
  19   2.0000      -1.018155       -27.7054 
  20   2.0000      -0.905569       -24.6418 
  21   2.0000      -0.884543       -24.0696 
  22   2.0000      -0.801694       -21.8152 
  23   2.0000      -0.768330       -20.9073 
  24   2.0000      -0.739935       -20.1347 
  25   2.0000      -0.688859       -18.7448 
  26   2.0000      -0.648235       -17.6394 
  27   2.0000      -0.625286       -17.0149 
  28   2.0000      -0.592307       -16.1175 
  29   2.0000      -0.564351       -15.3568 
  30   2.0000      -0.550854       -14.9895 
  31   2.0000      -0.539144       -14.6709 
  32   2.0000      -0.532732       -14.4964 
  33   2.0000      -0.505613       -13.7584 
  34   2.0000      -0.496481       -13.5099 
  35   2.0000      -0.486058       -13.2263 
  36   2.0000      -0.478128       -13.0105 
  37   2.0000      -0.475645       -12.9430 
  38   2.0000      -0.463595       -12.6151 
  39   2.0000      -0.446544       -12.1511 
  40   2.0000      -0.445938       -12.1346 
  41   2.0000      -0.441600       -12.0165 
  42   2.0000      -0.431533       -11.7426 
  43   2.0000      -0.423475       -11.5233 
  44   2.0000      -0.414976       -11.2921 
  45   2.0000      -0.396225       -10.7818 
  46   2.0000      -0.392970       -10.6933 
  47   2.0000      -0.376304       -10.2398 
  48   2.0000      -0.371483       -10.1086 
  49   2.0000      -0.367374        -9.9968 
  50   2.0000      -0.351636        -9.5685 
  51   2.0000      -0.321642        -8.7523 
  52   2.0000      -0.281938        -7.6719 
  53   2.0000      -0.262954        -7.1553 
  54   2.0000      -0.259107        -7.0506 
  55   2.0000      -0.241711        -6.5773 
  56   0.0000      -0.017101        -0.4653 
  57   0.0000      -0.014898        -0.4054 
  58   0.0000       0.002427         0.0660 
  59   0.0000       0.047257         1.2859 
  60   0.0000       0.073119         1.9897 
  61   0.0000       0.075195         2.0462 
  62   0.0000       0.107072         2.9136 
  63   0.0000       0.119390         3.2488 
  64   0.0000       0.137216         3.7338 
  65   0.0000       0.147495         4.0135 
  66   0.0000       0.156129         4.2485 
  67   0.0000       0.162666         4.4264 
  68   0.0000       0.183239         4.9862 
  69   0.0000       0.195480         5.3193 
  70   0.0000       0.210503         5.7281 
  71   0.0000       0.217707         5.9241 
  72   0.0000       0.233280         6.3479 
  73   0.0000       0.248055         6.7499 
  74   0.0000       0.257958         7.0194 
  75   0.0000       0.302823         8.2402 
  76   0.0000       0.315929         8.5969 
  77   0.0000       0.322600         8.7784 
  78   0.0000       0.359773         9.7899 
  79   0.0000       0.381734        10.3875 
  80   0.0000       0.393573        10.7097 
  81   0.0000       0.461295        12.5525 
  82   0.0000       0.474663        12.9162 
  83   0.0000       0.484313        13.1788 
  84   0.0000       0.494922        13.4675 
  85   0.0000       0.513747        13.9798 
  86   0.0000       0.523847        14.2546 
  87   0.0000       0.531645        14.4668 
  88   0.0000       0.538670        14.6580 
  89   0.0000       0.553212        15.0537 
  90   0.0000       0.560549        15.2533 
  91   0.0000       0.586753        15.9664 
  92   0.0000       0.589308        16.0359 
  93   0.0000       0.611083        16.6284 
  94   0.0000       0.621026        16.8990 
  95   0.0000       0.624703        16.9990 
  96   0.0000       0.637031        17.3345 
  97   0.0000       0.644737        17.5442 
  98   0.0000       0.652294        17.7498 
  99   0.0000       0.674179        18.3453 
 100   0.0000       0.698373        19.0037 
 101   0.0000       0.718266        19.5450 
 102   0.0000       0.735954        20.0263 
 103   0.0000       0.743314        20.2266 
 104   0.0000       0.752329        20.4719 
 105   0.0000       0.768392        20.9090 
 106   0.0000       0.783049        21.3078 
 107   0.0000       0.790366        21.5069 
 108   0.0000       0.810886        22.0653 
 109   0.0000       0.825570        22.4649 
 110   0.0000       0.836857        22.7720 
 111   0.0000       0.853966        23.2376 
 112   0.0000       0.862154        23.4604 
 113   0.0000       0.873680        23.7740 
 114   0.0000       0.880059        23.9476 
 115   0.0000       0.893542        24.3145 
 116   0.0000       0.924336        25.1525 
 117   0.0000       0.928386        25.2627 
 118   0.0000       0.939288        25.5593 
 119   0.0000       0.953225        25.9386 
 120   0.0000       0.977261        26.5926 
 121   0.0000       0.987528        26.8720 
 122   0.0000       0.999605        27.2006 
 123   0.0000       1.017600        27.6903 
 124   0.0000       1.051108        28.6021 
 125   0.0000       1.077062        29.3083 
 126   0.0000       1.077284        29.3144 
 127   0.0000       1.099296        29.9134 
 128   0.0000       1.104945        30.0671 
 129   0.0000       1.140347        31.0304 
 130   0.0000       1.158804        31.5327 
 131   0.0000       1.187596        32.3161 
 132   0.0000       1.208559        32.8866 
 133   0.0000       1.224721        33.3264 
 134   0.0000       1.226078        33.3633 
 135   0.0000       1.239514        33.7289 
 136   0.0000       1.246862        33.9288 
 137   0.0000       1.276080        34.7239 
 138   0.0000       1.320919        35.9440 
 139   0.0000       1.334243        36.3066 
 140   0.0000       1.349498        36.7217 
 141   0.0000       1.365605        37.1600 
 142   0.0000       1.376811        37.4649 
 143   0.0000       1.380617        37.5685 
 144   0.0000       1.390373        37.8340 
 145   0.0000       1.423643        38.7393 
 146   0.0000       1.424347        38.7584 
 147   0.0000       1.438812        39.1521 
 148   0.0000       1.453099        39.5408 
 149   0.0000       1.468157        39.9506 
 150   0.0000       1.477002        40.1913 
 151   0.0000       1.482396        40.3381 
 152   0.0000       1.493357        40.6363 
 153   0.0000       1.533201        41.7205 
 154   0.0000       1.582983        43.0752 
 155   0.0000       1.653598        44.9967 
 156   0.0000       1.684665        45.8421 
 157   0.0000       1.715251        46.6744 
 158   0.0000       1.719152        46.7805 
 159   0.0000       1.724815        46.9346 
 160   0.0000       1.737217        47.2721 
 161   0.0000       1.758720        47.8572 
 162   0.0000       1.762921        47.9715 
 163   0.0000       1.773841        48.2687 
 164   0.0000       1.783857        48.5412 
 165   0.0000       1.785153        48.5765 
 166   0.0000       1.793023        48.7906 
 167   0.0000       1.801038        49.0087 
 168   0.0000       1.825385        49.6713 
 169   0.0000       1.835067        49.9347 
 170   0.0000       1.837759        50.0080 
 171   0.0000       1.853218        50.4286 
 172   0.0000       1.856307        50.5127 
 173   0.0000       1.875077        51.0234 
 174   0.0000       1.887075        51.3499 
 175   0.0000       1.899179        51.6793 
 176   0.0000       1.908775        51.9404 
 177   0.0000       1.915915        52.1347 
 178   0.0000       1.927244        52.4430 
 179   0.0000       1.947212        52.9863 
 180   0.0000       1.972317        53.6695 
 181   0.0000       1.985796        54.0362 
 182   0.0000       2.004965        54.5579 
 183   0.0000       2.028750        55.2051 
 184   0.0000       2.075123        56.4670 
 185   0.0000       2.081973        56.6534 
 186   0.0000       2.085154        56.7399 
 187   0.0000       2.099847        57.1398 
 188   0.0000       2.128574        57.9215 
 189   0.0000       2.161283        58.8115 
 190   0.0000       2.189596        59.5819 
 191   0.0000       2.205896        60.0255 
 192   0.0000       2.228807        60.6489 
 193   0.0000       2.245243        61.0962 
 194   0.0000       2.251671        61.2711 
 195   0.0000       2.257891        61.4403 
 196   0.0000       2.261923        61.5501 
 197   0.0000       2.291073        62.3433 
 198   0.0000       2.296523        62.4916 
 199   0.0000       2.312224        62.9188 
 200   0.0000       2.320242        63.1370 
 201   0.0000       2.326456        63.3061 
 202   0.0000       2.343096        63.7589 
 203   0.0000       2.355363        64.0927 
 204   0.0000       2.363675        64.3189 
 205   0.0000       2.373847        64.5957 
 206   0.0000       2.407108        65.5007 
 207   0.0000       2.414193        65.6935 
 208   0.0000       2.451106        66.6980 
 209   0.0000       2.469761        67.2056 
 210   0.0000       2.497364        67.9567 
 211   0.0000       2.506123        68.1951 
 212   0.0000       2.516435        68.4757 
 213   0.0000       2.538712        69.0819 
 214   0.0000       2.557139        69.5833 
 215   0.0000       2.573594        70.0310 
 216   0.0000       2.579288        70.1860 
 217   0.0000       2.610015        71.0221 
 218   0.0000       2.641040        71.8663 
 219   0.0000       2.647478        72.0415 
 220   0.0000       2.653038        72.1928 
 221   0.0000       2.718366        73.9705 
 222   0.0000       2.721381        74.0525 
 223   0.0000       2.744161        74.6724 
 224   0.0000       2.754612        74.9568 
 225   0.0000       2.770715        75.3950 
 226   0.0000       2.808371        76.4197 
 227   0.0000       2.810577        76.4797 
 228   0.0000       2.852355        77.6165 
 229   0.0000       2.883092        78.4529 
 230   0.0000       2.900444        78.9251 
 231   0.0000       2.910681        79.2036 
 232   0.0000       2.962503        80.6138 
 233   0.0000       2.983994        81.1986 
 234   0.0000       3.013178        81.9927 
 235   0.0000       3.066036        83.4311 
 236   0.0000       3.085048        83.9484 
 237   0.0000       3.098848        84.3239 
 238   0.0000       3.156203        85.8846 
 239   0.0000       3.177088        86.4530 
 240   0.0000       3.222489        87.6884 
 241   0.0000       3.293786        89.6285 
 242   0.0000       3.320288        90.3496 
 243   0.0000       3.349850        91.1540 
 244   0.0000       3.361810        91.4795 
 245   0.0000       3.391208        92.2795 
 246   0.0000       3.440129        93.6107 
 247   0.0000       3.498037        95.1864 
 248   0.0000       3.558029        96.8189 
 249   0.0000       3.713107       101.0388 

                    ********************************
                    * MULLIKEN POPULATION ANALYSIS *
                    ********************************

-----------------------
MULLIKEN ATOMIC CHARGES
-----------------------
   0 F :   -0.304453
   1 F :   -0.304421
   2 F :   -0.292351
   3 O :   -0.463060
   4 O :   -0.444199
   5 N :   -0.553100
   6 C :   -0.258957
   7 C :   -0.012639
   8 C :    0.116738
   9 C :   -0.190252
  10 C :   -0.180399
  11 C :    0.554199
  12 C :    0.341370
  13 C :    0.339311
  14 C :    0.265238
  15 H :    0.117330
  16 H :    0.107063
  17 H :    0.124483
  18 H :    0.120478
  19 H :    0.105884
  20 H :    0.235080
  21 H :    0.249160
  22 H :    0.327498
Sum of atomic charges:   -0.0000000

--------------------------------
MULLIKEN REDUCED ORBITAL CHARGES
--------------------------------
  0 F s       :     3.973565  s :     3.973565
      pz      :     1.804517  p :     5.313240
      px      :     1.740673
      py      :     1.768051
      dz2     :     0.002823  d :     0.017648
      dxz     :     0.003617
      dyz     :     0.003236
      dx2y2   :     0.003343
      dxy     :     0.004629

  1 F s       :     3.973498  s :     3.973498
      pz      :     1.889957  p :     5.313288
      px      :     1.886193
      py      :     1.537139
      dz2     :     0.002158  d :     0.017635
      dxz     :     0.000673
      dyz     :     0.004513
      dx2y2   :     0.005543
      dxy     :     0.004748

  2 F s       :     3.974775  s :     3.974775
      pz      :     1.868775  p :     5.299756
      px      :     1.562690
      py      :     1.868290
      dz2     :     0.002327  d :     0.017821
      dxz     :     0.004660
      dyz     :     0.001081
      dx2y2   :     0.005102
      dxy     :     0.004651

  3 O s       :     3.824942  s :     3.824942
      pz      :     1.509791  p :     4.614563
      px      :     1.687483
      py      :     1.417289
      dz2     :     0.006972  d :     0.023555
      dxz     :     0.005671
      dyz     :     0.002469
      dx2y2   :     0.006756
      dxy     :     0.001687

  4 O s       :     3.860968  s :     3.860968
      pz      :     1.571395  p :     4.555421
      px      :     1.432935
      py      :     1.551092
      dz2     :     0.004726  d :     0.027809
      dxz     :     0.003683
      dyz     :     0.006374
      dx2y2   :     0.006547
      dxy     :     0.006479

  5 N s       :     3.608294  s :     3.608294
      pz      :     1.485599  p :     3.914196
      px      :     1.296826
      py      :     1.131770
      dz2     :     0.005083  d :     0.030610
      dxz     :     0.003602
      dyz     :     0.010117
      dx2y2   :     0.007972
      dxy     :     0.003837

  6 C s       :     3.240479  s :     3.240479
      pz      :     0.986287  p :     2.980914
      px      :     0.946820
      py      :     1.047806
      dz2     :     0.005811  d :     0.037565
      dxz     :     0.009363
      dyz     :     0.007391
      dx2y2   :     0.010098
      dxy     :     0.004901

  7 C s       :     3.184519  s :     3.184519
      pz      :     0.975786  p :     2.770828
      px      :     0.847039
      py      :     0.948003
      dz2     :     0.008216  d :     0.057292
      dxz     :     0.015145
      dyz     :     0.009635
      dx2y2   :     0.015685
      dxy     :     0.008612

  8 C s       :     3.140798  s :     3.140798
      pz      :     0.929177  p :     2.700794
      px      :     0.903032
      py      :     0.868585
      dz2     :     0.005288  d :     0.041670
      dxz     :     0.006305
      dyz     :     0.007143
      dx2y2   :     0.011406
      dxy     :     0.011528

  9 C s       :     3.183060  s :     3.183060
      pz      :     1.039561  p :     2.973954
      px      :     0.958282
      py      :     0.976110
      dz2     :     0.003140  d :     0.033239
      dxz     :     0.005188
      dyz     :     0.006273
      dx2y2   :     0.009031
      dxy     :     0.009607

 10 C s       :     3.179742  s :     3.179742
      pz      :     1.029706  p :     2.967414
      px      :     0.968419
      py      :     0.969289
      dz2     :     0.004635  d :     0.033244
      dxz     :     0.005924
      dyz     :     0.004374
      dx2y2   :     0.010635
      dxy     :     0.007676

 11 C s       :     2.977777  s :     2.977777
      pz      :     0.717548  p :     2.345248
      px      :     0.733274
      py      :     0.894425
      dz2     :     0.031736  d :     0.122776
      dxz     :     0.023910
      dyz     :     0.023376
      dx2y2   :     0.026703
      dxy     :     0.017052

 12 C s       :     3.094305  s :     3.094305
      pz      :     0.915151  p :     2.490011
      px      :     0.794274
      py      :     0.780587
      dz2     :     0.009782  d :     0.074314
      dxz     :     0.012828
      dyz     :     0.012536
      dx2y2   :     0.019297
      dxy     :     0.019872

 13 C s       :     3.094906  s :     3.094906
      pz      :     0.977359  p :     2.491489
      px      :     0.903274
      py      :     0.610856
      dz2     :     0.008842  d :     0.074294
      dxz     :     0.008426
      dyz     :     0.014721
      dx2y2   :     0.020260
      dxy     :     0.022045

 14 C s       :     3.083441  s :     3.083441
      pz      :     1.012931  p :     2.579209
      px      :     0.657275
      py      :     0.909004
      dz2     :     0.008654  d :     0.072111
      dxz     :     0.014275
      dyz     :     0.009075
      dx2y2   :     0.020083
      dxy     :     0.020026

 15 H s       :     0.871294  s :     0.871294
      pz      :     0.005042  p :     0.011376
      px      :     0.002738
      py      :     0.003596

 16 H s       :     0.881420  s :     0.881420
      pz      :     0.002838  p :     0.011517
      px      :     0.002173
      py      :     0.006506

 17 H s       :     0.864670  s :     0.864670
      pz      :     0.005248  p :     0.010847
      px      :     0.002271
      py      :     0.003328

 18 H s       :     0.867017  s :     0.867017
      pz      :     0.003997  p :     0.012505
      px      :     0.004271
      py      :     0.004237

 19 H s       :     0.881640  s :     0.881640
      pz      :     0.002903  p :     0.012477
      px      :     0.002278
      py      :     0.007296

 20 H s       :     0.741096  s :     0.741096
      pz      :     0.007167  p :     0.023823
      px      :     0.005385
      py      :     0.011271

 21 H s       :     0.727048  s :     0.727048
      pz      :     0.009504  p :     0.023793
      px      :     0.006670
      py      :     0.007618

 22 H s       :     0.634991  s :     0.634991
      pz      :     0.007863  p :     0.037511
      px      :     0.008100
      py      :     0.021548


------------------------
MULLIKEN OVERLAP CHARGES
------------------------
B(  0-F , 10-C ) :  -0.0828 B(  0-F , 12-C ) :   0.5566 B(  0-F , 14-C ) :  -0.0734 
B(  1-F ,  9-C ) :  -0.0813 B(  1-F , 13-C ) :   0.5553 B(  1-F , 14-C ) :  -0.0740 
B(  2-F , 12-C ) :  -0.0923 B(  2-F , 13-C ) :  -0.0926 B(  2-F , 14-C ) :   0.5984 
B(  3-O ,  4-O ) :  -0.1626 B(  3-O ,  7-C ) :  -0.1589 B(  3-O , 11-C ) :   0.5911 
B(  3-O , 22-H ) :   0.5494 B(  4-O ,  7-C ) :  -0.1618 B(  4-O , 11-C ) :   1.2195 
B(  5-N ,  6-C ) :  -0.1150 B(  5-N ,  7-C ) :   0.6709 B(  5-N , 11-C ) :  -0.0779 
B(  5-N , 17-H ) :  -0.0750 B(  5-N , 20-H ) :   0.6843 B(  5-N , 21-H ) :   0.6760 
B(  6-C ,  7-C ) :   0.6666 B(  6-C ,  8-C ) :   0.5976 B(  6-C ,  9-C ) :  -0.0816 
B(  6-C , 10-C ) :  -0.1017 B(  6-C , 11-C ) :  -0.0597 B(  6-C , 15-H ) :   0.7251 
B(  6-C , 16-H ) :   0.7349 B(  6-C , 17-H ) :  -0.0948 B(  7-C ,  8-C ) :  -0.0656 
B(  7-C , 11-C ) :   0.5992 B(  7-C , 15-H ) :  -0.0700 B(  7-C , 16-H ) :  -0.0774 
B(  7-C , 17-H ) :   0.7324 B(  7-C , 20-H ) :  -0.0895 B(  7-C , 21-H ) :  -0.0836 
B(  8-C ,  9-C ) :   0.9485 B(  8-C , 10-C ) :   0.9522 B(  8-C , 14-C ) :  -0.0514 
B(  8-C , 15-H ) :  -0.0533 B(  8-C , 16-H ) :  -0.0507 B(  8-C , 18-H ) :  -0.0755 
B(  8-C , 19-H ) :  -0.0806 B(  9-C , 10-C ) :  -0.1257 B(  9-C , 12-C ) :  -0.0518 
B(  9-C , 13-C ) :   0.8573 B(  9-C , 14-C ) :  -0.1233 B(  9-C , 18-H ) :   0.7183 
B( 10-C , 12-C ) :   0.8748 B( 10-C , 13-C ) :  -0.0520 B( 10-C , 14-C ) :  -0.1222 
B( 10-C , 19-H ) :   0.7186 B( 11-C , 17-H ) :  -0.0647 B( 12-C , 13-C ) :  -0.0753 
B( 12-C , 14-C ) :   0.6173 B( 12-C , 19-H ) :  -0.0647 B( 13-C , 14-C ) :   0.6200 
B( 13-C , 18-H ) :  -0.0636 B( 15-H , 16-H ) :  -0.0635 B( 20-H , 21-H ) :  -0.0641 



                     *******************************
                     * LOEWDIN POPULATION ANALYSIS *
                     *******************************

----------------------
LOEWDIN ATOMIC CHARGES
----------------------
   0 F :   -0.085980
   1 F :   -0.086111
   2 F :   -0.078043
   3 O :   -0.140924
   4 O :   -0.243105
   5 N :   -0.248512
   6 C :   -0.121924
   7 C :   -0.036346
   8 C :   -0.006603
   9 C :   -0.110840
  10 C :   -0.108911
  11 C :    0.151318
  12 C :    0.099618
  13 C :    0.097742
  14 C :    0.058179
  15 H :    0.079426
  16 H :    0.075670
  17 H :    0.080303
  18 H :    0.092083
  19 H :    0.086829
  20 H :    0.124902
  21 H :    0.131043
  22 H :    0.190185

-------------------------------
LOEWDIN REDUCED ORBITAL CHARGES
-------------------------------
  0 F s       :     3.729766  s :     3.729766
      pz      :     1.803710  p :     5.320274
      px      :     1.746316
      py      :     1.770248
      dz2     :     0.005802  d :     0.035939
      dxz     :     0.007349
      dyz     :     0.006642
      dx2y2   :     0.006579
      dxy     :     0.009566

  1 F s       :     3.729754  s :     3.729754
      pz      :     1.883290  p :     5.320399
      px      :     1.881732
      py      :     1.555377
      dz2     :     0.004391  d :     0.035957
      dxz     :     0.001336
      dyz     :     0.009278
      dx2y2   :     0.011435
      dxy     :     0.009517

  2 F s       :     3.728203  s :     3.728203
      pz      :     1.865151  p :     5.312946
      px      :     1.580060
      py      :     1.867736
      dz2     :     0.004820  d :     0.036893
      dxz     :     0.009774
      dyz     :     0.002270
      dx2y2   :     0.010594
      dxy     :     0.009436

  3 O s       :     3.474595  s :     3.474595
      pz      :     1.523921  p :     4.616611
      px      :     1.673013
      py      :     1.419677
      dz2     :     0.013531  d :     0.049718
      dxz     :     0.013044
      dyz     :     0.007462
      dx2y2   :     0.012606
      dxy     :     0.003076

  4 O s       :     3.562360  s :     3.562360
      pz      :     1.581022  p :     4.625504
      px      :     1.450695
      py      :     1.593788
      dz2     :     0.008064  d :     0.055241
      dxz     :     0.008495
      dyz     :     0.013460
      dx2y2   :     0.010840
      dxy     :     0.014381

  5 N s       :     3.211559  s :     3.211559
      pz      :     1.481213  p :     3.978456
      px      :     1.337755
      py      :     1.159488
      dz2     :     0.007737  d :     0.058497
      dxz     :     0.007248
      dyz     :     0.016362
      dx2y2   :     0.017692
      dxy     :     0.009458

  6 C s       :     2.901485  s :     2.901485
      pz      :     1.047844  p :     3.138431
      px      :     1.014255
      py      :     1.076332
      dz2     :     0.012286  d :     0.082008
      dxz     :     0.022360
      dyz     :     0.014373
      dx2y2   :     0.022450
      dxy     :     0.010540

  7 C s       :     2.882508  s :     2.882508
      pz      :     1.044280  p :     3.027124
      px      :     0.960830
      py      :     1.022014
      dz2     :     0.017313  d :     0.126715
      dxz     :     0.035099
      dyz     :     0.020363
      dx2y2   :     0.036356
      dxy     :     0.017584

  8 C s       :     2.870514  s :     2.870514
      pz      :     0.974047  p :     3.032950
      px      :     1.014284
      py      :     1.044620
      dz2     :     0.011604  d :     0.103139
      dxz     :     0.013710
      dyz     :     0.017297
      dx2y2   :     0.030454
      dxy     :     0.030075

  9 C s       :     2.896151  s :     2.896151
      pz      :     1.042478  p :     3.133206
      px      :     1.039755
      py      :     1.050973
      dz2     :     0.006690  d :     0.081483
      dxz     :     0.011491
      dyz     :     0.013448
      dx2y2   :     0.024530
      dxy     :     0.025324

 10 C s       :     2.894674  s :     2.894674
      pz      :     1.040109  p :     3.132689
      px      :     1.037039
      py      :     1.055542
      dz2     :     0.009606  d :     0.081548
      dxz     :     0.014924
      dyz     :     0.009386
      dx2y2   :     0.026459
      dxy     :     0.021173

 11 C s       :     2.851441  s :     2.851441
      pz      :     0.863502  p :     2.709910
      px      :     0.826022
      py      :     1.020386
      dz2     :     0.073201  d :     0.287331
      dxz     :     0.060349
      dyz     :     0.052862
      dx2y2   :     0.061851
      dxy     :     0.039068

 12 C s       :     2.861215  s :     2.861215
      pz      :     0.948824  p :     2.855175
      px      :     0.953319
      py      :     0.953032
      dz2     :     0.021197  d :     0.183992
      dxz     :     0.031341
      dyz     :     0.030458
      dx2y2   :     0.052078
      dxy     :     0.048919

 13 C s       :     2.861343  s :     2.861343
      pz      :     1.004712  p :     2.856865
      px      :     1.048305
      py      :     0.803848
      dz2     :     0.020625  d :     0.184050
      dxz     :     0.019125
      dyz     :     0.034962
      dx2y2   :     0.051489
      dxy     :     0.057849

 14 C s       :     2.859800  s :     2.859800
      pz      :     1.030995  p :     2.901629
      px      :     0.836523
      py      :     1.034111
      dz2     :     0.020084  d :     0.180391
      dxz     :     0.034511
      dyz     :     0.020556
      dx2y2   :     0.051170
      dxy     :     0.054070

 15 H s       :     0.881099  s :     0.881099
      pz      :     0.018465  p :     0.039475
      px      :     0.008829
      py      :     0.012181

 16 H s       :     0.885275  s :     0.885275
      pz      :     0.008860  p :     0.039056
      px      :     0.006480
      py      :     0.023715

 17 H s       :     0.879929  s :     0.879929
      pz      :     0.019143  p :     0.039768
      px      :     0.007742
      py      :     0.012883

 18 H s       :     0.865731  s :     0.865731
      pz      :     0.012979  p :     0.042186
      px      :     0.014539
      py      :     0.014669

 19 H s       :     0.871506  s :     0.871506
      pz      :     0.008883  p :     0.041665
      px      :     0.007336
      py      :     0.025446

 20 H s       :     0.797797  s :     0.797797
      pz      :     0.022864  p :     0.077301
      px      :     0.015853
      py      :     0.038585

 21 H s       :     0.790442  s :     0.790442
      pz      :     0.034587  p :     0.078514
      px      :     0.020514
      py      :     0.023413

 22 H s       :     0.696372  s :     0.696372
      pz      :     0.022341  p :     0.113443
      px      :     0.023626
      py      :     0.067476


---------------------------------
LOEWDIN BOND ORDERS (THRESH 0.050000)
---------------------------------
B(  0-F , 10-C ) :   0.0922 B(  0-F , 12-C ) :   1.2723 B(  0-F , 14-C ) :   0.0921 
B(  1-F ,  9-C ) :   0.0917 B(  1-F , 13-C ) :   1.2721 B(  1-F , 14-C ) :   0.0925 
B(  2-F , 12-C ) :   0.0902 B(  2-F , 13-C ) :   0.0906 B(  2-F , 14-C ) :   1.2827 
B(  3-O ,  4-O ) :   0.2052 B(  3-O ,  7-C ) :   0.0637 B(  3-O , 11-C ) :   1.4110 
B(  3-O , 22-H ) :   0.9825 B(  4-O ,  7-C ) :   0.0849 B(  4-O , 11-C ) :   2.2014 
B(  5-N ,  6-C ) :   0.0715 B(  5-N ,  7-C ) :   1.1586 B(  5-N , 11-C ) :   0.0552 
B(  5-N , 20-H ) :   0.9853 B(  5-N , 21-H ) :   0.9803 B(  6-C ,  7-C ) :   0.9872 
B(  6-C ,  8-C ) :   1.0375 B(  6-C ,  9-C ) :   0.0622 B(  6-C , 10-C ) :   0.0606 
B(  6-C , 11-C ) :   0.0540 B(  6-C , 15-H ) :   0.9247 B(  6-C , 16-H ) :   0.9218 
B(  7-C , 11-C ) :   0.9797 B(  7-C , 17-H ) :   0.9050 B(  8-C ,  9-C ) :   1.4225 
B(  8-C , 10-C ) :   1.4202 B(  8-C , 12-C ) :   0.0841 B(  8-C , 13-C ) :   0.0839 
B(  8-C , 14-C ) :   0.0936 B(  9-C , 10-C ) :   0.0711 B(  9-C , 12-C ) :   0.0953 
B(  9-C , 13-C ) :   1.4341 B(  9-C , 14-C ) :   0.0819 B(  9-C , 18-H ) :   0.9114 
B( 10-C , 12-C ) :   1.4388 B( 10-C , 13-C ) :   0.0960 B( 10-C , 14-C ) :   0.0816 
B( 10-C , 19-H ) :   0.9138 B( 11-C , 22-H ) :   0.0573 B( 12-C , 13-C ) :   0.0864 
B( 12-C , 14-C ) :   1.3651 B( 13-C , 14-C ) :   1.3695 

------------------------------------------
LOEWDIN REDUCED ORBITAL POPULATIONS PER MO
-------------------------------------------
THRESHOLD FOR PRINTING IS 0.1%%
                      0         1         2         3         4         5   
                 -24.71556 -24.71393 -24.71374 -19.20152 -19.14144 -14.32403
                   2.00000   2.00000   2.00000   2.00000   2.00000   2.00000
                  --------  --------  --------  --------  --------  --------
 0 F  s               0.0      99.8       0.1       0.0       0.0       0.0
 1 F  s               0.0       0.1      99.8       0.0       0.0       0.0
 2 F  s              99.9       0.0       0.0       0.0       0.0       0.0
 3 O  s               0.0       0.0       0.0      99.9       0.0       0.0
 4 O  s               0.0       0.0       0.0       0.0      99.8       0.0
 5 N  s               0.0       0.0       0.0       0.0       0.0      99.7

                      6         7         8         9        10        11   
                 -10.32167 -10.28727 -10.28683 -10.28327 -10.23482 -10.21771
                   2.00000   2.00000   2.00000   2.00000   2.00000   2.00000
                  --------  --------  --------  --------  --------  --------
 1 F  py              0.0       0.0       0.1       0.0       0.0       0.0
 2 F  px              0.0       0.0       0.0       0.1       0.0       0.0
 3 O  pz              0.1       0.0       0.0       0.0       0.0       0.0
 4 O  py              0.2       0.0       0.0       0.0       0.0       0.0
 5 N  px              0.0       0.0       0.0       0.0       0.1       0.0
 6 C  px              0.0       0.0       0.0       0.0       0.1       0.1
 7 C  s               0.0       0.0       0.0       0.0      99.4       0.0
 7 C  py              0.1       0.0       0.0       0.0       0.0       0.0
 8 C  s               0.0       0.0       0.0       0.0       0.0      99.3
 9 C  px              0.0       0.0       0.2       0.0       0.0       0.0
 9 C  py              0.0       0.0       0.0       0.0       0.0       0.2
10 C  px              0.0       0.2       0.0       0.0       0.0       0.1
11 C  s              98.9       0.0       0.0       0.0       0.0       0.0
11 C  py              0.0       0.0       0.0       0.0       0.1       0.0
12 C  s               0.0      98.9       0.1       0.4       0.0       0.0
12 C  py              0.0       0.0       0.0       0.2       0.0       0.0
13 C  s               0.0       0.0      98.8       0.4       0.0       0.0
14 C  s               0.0       0.4       0.4      98.5       0.0       0.0
14 C  py              0.0       0.2       0.1       0.0       0.0       0.0

                     12        13        14        15        16        17   
                 -10.20565 -10.20497 -10.20387  -1.24010  -1.22985  -1.22099
                   2.00000   2.00000   2.00000   2.00000   2.00000   2.00000
                  --------  --------  --------  --------  --------  --------
 0 F  s               0.0       0.0       0.0      17.5      37.5      20.2
 0 F  pz              0.0       0.0       0.0       0.1       0.2       0.1
 0 F  px              0.0       0.0       0.0       0.2       0.4       0.2
 0 F  py              0.0       0.0       0.0       0.2       0.3       0.1
 1 F  s               0.0       0.0       0.0      16.8      37.5      21.0
 1 F  py              0.0       0.0       0.0       0.4       0.8       0.4
 2 F  s               0.0       0.0       0.0      38.7       0.0      36.5
 2 F  px              0.0       0.0       0.0       0.9       0.0       0.6
 2 F  py              0.0       0.0       0.0       0.1       0.0       0.1
 6 C  s              99.5       0.0       0.0       0.0       0.0       0.0
 8 C  px              0.1       0.1       0.0       0.0       0.0       0.0
 8 C  py              0.0       0.1       0.2       0.0       0.0       0.0
 9 C  s               0.0       0.0      99.3       0.2       0.1       0.1
 9 C  px              0.0       0.0       0.0       0.3       0.2       0.1
 9 C  py              0.0       0.0       0.0       0.0       0.2       0.1
10 C  s               0.0      99.3       0.0       0.2       0.1       0.1
10 C  px              0.0       0.0       0.0       0.3       0.3       0.1
12 C  s               0.0       0.0       0.0       3.3       3.5       1.3
12 C  pz              0.0       0.0       0.0       0.5       1.3       0.7
12 C  px              0.0       0.2       0.0       1.8       2.3       0.7
12 C  py              0.0       0.0       0.0       0.1       2.2       2.2
12 C  dxz             0.0       0.0       0.0       0.1       0.2       0.1
12 C  dyz             0.0       0.0       0.0       0.1       0.2       0.1
12 C  dxy             0.0       0.0       0.0       0.1       0.3       0.2
13 C  s               0.0       0.0       0.0       3.2       3.5       1.3
13 C  pz              0.0       0.0       0.0       0.0       0.2       0.3
13 C  px              0.0       0.0       0.2       1.0       0.4       0.0
13 C  py              0.0       0.0       0.0       1.3       5.1       3.3
13 C  dz2             0.0       0.0       0.0       0.1       0.2       0.1
13 C  dx2y2           0.0       0.0       0.0       0.1       0.4       0.3
13 C  dxy             0.0       0.0       0.0       0.1       0.2       0.1
14 C  s               0.0       0.0       0.0       6.5       0.0       1.8
14 C  pz              0.0       0.0       0.0       0.4       0.3       0.5
14 C  px              0.0       0.0       0.0       3.6       0.1       5.3
14 C  py              0.0       0.0       0.0       0.5       1.5       0.7
14 C  dz2             0.0       0.0       0.0       0.2       0.0       0.1
14 C  dxz             0.0       0.0       0.0       0.2       0.0       0.2
14 C  dx2y2           0.0       0.0       0.0       0.2       0.0       0.4
14 C  dxy             0.0       0.0       0.0       0.2       0.0       0.3

                     18        19        20        21        22        23   
                  -1.11196  -1.01815  -0.90557  -0.88454  -0.80169  -0.76833
                   2.00000   2.00000   2.00000   2.00000   2.00000   2.00000
                  --------  --------  --------  --------  --------  --------
 0 F  s               0.0       0.0       0.0       0.9       0.5       2.2
 0 F  pz              0.0       0.0       0.0       0.1       0.1       0.7
 0 F  px              0.0       0.0       0.0       0.3       0.1       1.6
[...]
  9 C      6.1903     6.0000    -0.1903     3.8864     3.8864    -0.0000
 10 C      6.1804     6.0000    -0.1804     3.8819     3.8819    -0.0000
 11 C      5.4458     6.0000     0.5542     3.9563     3.9563    -0.0000
 12 C      5.6586     6.0000     0.3414     3.7571     3.7571    -0.0000
 13 C      5.6607     6.0000     0.3393     3.7499     3.7499     0.0000
 14 C      5.7348     6.0000     0.2652     3.7168     3.7168     0.0000
 15 H      0.8827     1.0000     0.1173     0.9598     0.9598    -0.0000
 16 H      0.8929     1.0000     0.1071     0.9565     0.9565     0.0000
 17 H      0.8755     1.0000     0.1245     0.9512     0.9512    -0.0000
 18 H      0.8795     1.0000     0.1205     0.9625     0.9625    -0.0000
 19 H      0.8941     1.0000     0.1059     0.9614     0.9614    -0.0000
 20 H      0.7649     1.0000     0.2351     0.9228     0.9228    -0.0000
 21 H      0.7508     1.0000     0.2492     0.9276     0.9276    -0.0000
 22 H      0.6725     1.0000     0.3275     0.9095     0.9095     0.0000

  Mayer bond orders larger than 0.100000
B(  0-F , 12-C ) :   0.9201 B(  1-F , 13-C ) :   0.9198 B(  2-F , 14-C ) :   0.9600 
B(  3-O , 11-C ) :   1.0996 B(  3-O , 22-H ) :   0.8502 B(  4-O , 11-C ) :   1.9082 
B(  5-N ,  7-C ) :   1.0310 B(  5-N , 20-H ) :   0.9102 B(  5-N , 21-H ) :   0.8956 
B(  6-C ,  7-C ) :   0.9526 B(  6-C ,  8-C ) :   0.9802 B(  6-C , 15-H ) :   0.9394 
B(  6-C , 16-H ) :   0.9416 B(  7-C , 11-C ) :   0.9219 B(  7-C , 17-H ) :   0.9308 
B(  8-C ,  9-C ) :   1.4035 B(  8-C , 10-C ) :   1.3986 B(  9-C , 13-C ) :   1.3820 
B(  9-C , 18-H ) :   0.9255 B( 10-C , 12-C ) :   1.3902 B( 10-C , 19-H ) :   0.9298 
B( 12-C , 14-C ) :   1.2918 B( 13-C , 14-C ) :   1.2959 

-------
TIMINGS
-------

Total SCF time: 0 days 0 hours 1 min 15 sec 

Total time                  ....      75.304 sec
Sum of individual times     ....      72.924 sec  ( 96.8%)

SCF preparation             ....       0.376 sec  (  0.5%)
Fock matrix formation       ....      71.756 sec  ( 95.3%)
  Startup                   ....       0.007 sec  (  0.0% of F)
  Split-RI-J                ....       7.207 sec  ( 10.0% of F)
  Chain of spheres X        ....      56.246 sec  ( 78.4% of F)
  XC integration            ....      10.518 sec  ( 14.7% of F)
    XC Preparation          ....       0.000 sec  (  0.0% of XC)
    Basis function eval.    ....       3.966 sec  ( 37.7% of XC)
    Density eval.           ....       2.373 sec  ( 22.6% of XC)
    XC-Functional eval.     ....       0.572 sec  (  5.4% of XC)
    XC-Potential eval.      ....       2.997 sec  ( 28.5% of XC)
Diagonalization             ....       0.000 sec  (  0.0%)
Density matrix formation    ....       0.048 sec  (  0.1%)
Total Energy calculation    ....       0.023 sec  (  0.0%)
Population analysis         ....       0.352 sec  (  0.5%)
Orbital Transformation      ....       0.036 sec  (  0.0%)
Orbital Orthonormalization  ....       0.000 sec  (  0.0%)
DIIS solution               ....       0.174 sec  (  0.2%)
  MO trafo                  ....       0.000 sec  (  0.0 % of DIIS)
  Orb grad                  ....       0.000 sec  (  0.0 % of DIIS)
  Energy W gradient         ....       0.000 sec  (  0.0 % of DIIS)
  DIIS error                ....       0.037 sec  ( 21.5 % of DIIS)
  DIIS work                 ....       0.112 sec  ( 64.4 % of DIIS)
  Form Q                    ....       0.000 sec  (  0.0 % of DIIS)
  Form QpQm                 ....       0.000 sec  (  0.0 % of DIIS)
  Exp/Cayley                ....       0.000 sec  (  0.0 % of DIIS)
  Orb update                ....       0.000 sec  (  0.0 % of DIIS)
  Wake-sleep                ....       0.006 sec  (  3.3 % of DIIS)
SOSCF solution              ....       0.159 sec  (  0.2%)
  MO trafo                  ....       0.051 sec  ( 32.2 % of SOSCF)
  Orb grad                  ....       0.004 sec  (  2.8 % of SOSCF)
  Rot update                ....       0.021 sec  ( 12.9 % of SOSCF)
  Step                      ....       0.076 sec  ( 47.8 % of SOSCF)
Finished LeanSCF after  75.3 sec

Maximum memory used throughout the entire LEANSCF-calculation: 29.0 MB


-------------------------------------------------------------------------------
                          DFT DISPERSION CORRECTION                            
                                                                               
                              DFTD3 V3.1  Rev 1                                
                          USING Becke-Johnson damping                          
-------------------------------------------------------------------------------
The B3LYP functional is recognized
Active option DFTDOPT                   ...         4   

molecular C6(AA) [au] = 5755.363228 


            DFT-D V3
 parameters
 s6 scaling factor         :     1.0000 
 a1 scaling factor         :     0.3981 
 s8 scaling factor         :     1.9889 
 a2 scaling factor         :     4.4211 
 ad hoc parameters k1-k3   :    16.0000     1.3333    -4.0000 

 Edisp/kcal,au: -27.901806768487  -0.044464354636 
 E6   /kcal   : -13.177921777 
 E8   /kcal   : -14.723884992 
 % E8         :  52.770363991 

-------------------------   ----------------
Dispersion correction           -0.044464355
-------------------------   ----------------


-------------------------   --------------------
FINAL SINGLE POINT ENERGY      -852.103888408626
-------------------------   --------------------



           ************************************************************
           *        Program running with 2 parallel MPI-processes     *
           *              working on a common directory               *
           ************************************************************
------------------------------------------------------------------------------
                            ORCA SCF RESPONSE CALCULATION
------------------------------------------------------------------------------

GBWName                                 ... /kaggle/working/Phe-F3-2/Phe-F3_InterFrag.gbw
Number of atoms                         ...     23
Number of basis functions               ...    250
Max core memory                         ...   3000 MB

Electric field perturbation             ... YES
Quadrupolar field perturbation          ...  NO
Magnetic field perturbation (no GIAO)   ...  NO
Magnetic field perturbation (with GIAO) ...  NO
Linear momentum (velocity) perturbation ...  NO
Spin-orbit coupling perturbation        ...  NO
Choice of electric origin               ... Center of mass
Position of electric origin             ...     0.161489    -0.154458    -0.108950
Choice of magnetic origin               ... GIAO
Position of magnetic origin             ...     0.000000     0.000000     0.000000
Nuclear geometric perturbations         ...  NO (  69 perturbations)
Nucleus-orbit perturbations             ...  NO (   0 perturbations)
Spin-dipole/Fermi contact perturbations ...  NO (   0 perturbations)

Total number of real perturbations      ...      3
Total number of imaginary perturbations ...      0
Total number of triplet perturbations   ...      0
Total number of SOC perturbations       ...      0

Using XC Grid                  ... (/kaggle/working/Phe-F3-2/Phe-F3_InterFrag.grid_cpscf.tmp) 
Recalculating density on grid  ... (/kaggle/working/Phe-F3-2/Phe-F3_InterFrag.grho_cpscf0.tmp) done
Calculating the xc-kernel      ... (/kaggle/working/Phe-F3-2/Phe-F3_InterFrag.fxc_cpscf0.tmp) done

                                **********************
                                * REAL PERTURBATIONS *
                                **********************



-------------------
SHARK CP-SCF DRIVER
-------------------

Dimension of the orbital basis          ...    250
Dimension of the CPSCF-problem          ...  10864
Number of operators                     ...      1
Max. number of iterations               ...    128
Convergence Tolerance                   ... 1.0e-04
Number of perturbations                 ...      3
Perturbation type                       ... REAL

----------------------------
POPLE LINEAR EQUATION SOLVER
----------------------------

  ITERATION   0:   ||err||_max =   1.9710e+01 (   3.0 sec   0/  3 done)
  ITERATION   1:   ||err||_max =   1.0771e+00 (   2.8 sec   0/  3 done)
  ITERATION   2:   ||err||_max =   4.1114e-01 (   2.8 sec   0/  3 done)
  ITERATION   3:   ||err||_max =   1.3464e-01 (   2.7 sec   0/  3 done)
  ITERATION   4:   ||err||_max =   5.0557e-02 (   2.7 sec   0/  3 done)
  ITERATION   5:   ||err||_max =   1.4982e-02 (   2.8 sec   0/  3 done)
  ITERATION   6:   ||err||_max =   4.5457e-03 (   2.8 sec   0/  3 done)
  ITERATION   7:   ||err||_max =   1.3874e-03 (   2.8 sec   0/  3 done)
  ITERATION   8:   ||err||_max =   4.5911e-04 (   2.8 sec   0/  3 done)
  ITERATION   9:   ||err||_max =   1.6609e-04 (   2.8 sec   2/  3 done)
  ITERATION  10:   ||err||_max =   5.1252e-05 (   2.2 sec   3/  3 done)

CP-SCF equations solved in  30.2 sec
Response densities calculated in   0.0 sec

Maximum memory used throughout the entire SCFRESP-calculation: 33.0 MB


           ************************************************************
           *        Program running with 2 parallel MPI-processes     *
           *              working on a common directory               *
           ************************************************************

------------------------------------------------------------------------------
                              ORCA PROPERTY CALCULATIONS
------------------------------------------------------------------------------

GBWName                                 ... /kaggle/working/Phe-F3-2/Phe-F3_InterFrag.gbw
Number of atoms                         ...     23
Number of basis functions               ...    250
Max core memory                         ...   3000 MB

Electric properties:
Dipole moment                           ... YES
Quadrupole moment                       ...  NO
Static polarizability (Dipole/Dipole)   ... YES
Static polarizability (Dipole/Quad.)    ...  NO
Static polarizability (Quad./Quad.)     ...  NO
Static polarizability (Velocity)        ...  NO
Static hyperpolarizability              ...  NO

Atomic electric properties:
Dipole moment                           ...  NO
Quadrupole moment                       ...  NO
Static polarizability                   ...  NO

Choice of electric origin               ... Center of mass
Position of electric origin             ...     0.161489    -0.154458    -0.108950

General magnetic properties:
Magnetizability                         ...  NO

EPR properties:
g-Tensor (aka g-matrix)                 ...  NO
Zero-Field splitting spin-orbit         ...  NO
Zero-field splitting spin-spin          ...  NO
Hyperfine couplings                     ...  NO (   0 nuclei)
Quadrupole couplings                    ...  NO (   0 nuclei)
Contact density                         ...  NO (   0 nuclei)

NMR properties:
Chemical shifts                         ...  NO (   0 nuclei)
Spin-rotation constants                 ...  NO (   0 nuclei)
Spin-spin couplings                     ...  NO (   0 nuclei,    0 pairs)

Choice of magnetic origin               ... GIAO
Position of magnetic origin             ...     0.000000     0.000000     0.000000

Properties with geometric perturbations:
SCF Hessian                             ...  NO
IR spectrum                             ...  NO
VCD spectrum                            ...  NO
X-ray spectroscopy properties:
SCF XES/XAS/RIXS spectra                ...  NO

SCF SOC stabilization energy            ...  NO
Diagonal Born-Oppenheimer correction    ...  NO

-------------
DIPOLE MOMENT
-------------

Method             : SCF
Type of density    : Electron Density
Multiplicity       :   1
Irrep              :   0
Energy             :  -852.0594240539900284 Eh
Basis              : AO
                                X                 Y                 Z
Electronic contribution:     22.097629713      -7.197939977      -3.643189292
Nuclear contribution   :    -22.435277261       7.884306839       4.040973184
                        -----------------------------------------
Total Dipole Moment    :     -0.337647549       0.686366862       0.397783891
                        -----------------------------------------
Magnitude (a.u.)       :      0.862170146
Magnitude (Debye)      :      2.191462353



--------------------
Rotational spectrum 
--------------------
 
Rotational constants in cm-1:             0.034082             0.011807             0.010121 
Rotational constants in MHz :          1021.737969           353.957066           303.408980 

Dipole components along the rotational axes: 
x,y,z [a.u.] :    -0.407937     0.582962     0.486909 
x,y,z [Debye]:    -1.036892     1.481773     1.237623 

 

Dipole moment calculation done in   0.0 sec 


---------------------------------------------------
STATIC POLARIZABILITY TENSOR (Dipole/Dipole)
---------------------------------------------------

Method             : SCF
Type of density    : Electron Density
Type of derivative : Electric Field (Direction=X)
Multiplicity       :   1
Irrep              :   0
Basis              : AO

The raw cartesian tensor (atomic units):
     126.184894513        -9.147300763       -19.944935636  
      -9.147300763       107.943867191        -6.619538581  
     -19.944935636        -6.619538581        72.234260414  
diagonalized tensor: 
      63.740031876       108.137110807       134.485879434  

Orientation: 
       0.324951347         0.177557830        -0.928913257  
       0.205483813         0.945497045         0.252609858  
       0.923137598        -0.272962552         0.270755278  

Isotropic polarizability : 102.12101


Polarizability tensor calculation done in   0.0 sec 

Maximum memory used throughout the entire PROP-calculation: 15.2 MB

--------------------------------
SUGGESTED CITATIONS FOR THIS RUN
--------------------------------

Below you find a list of papers that are relevant to this ORCA run
We neither can nor want to force you to cite these papers, but we appreciate if you do
You receive ORCA, which is the product of decades of hard work by many enthusiastic individuals, for free
The only thing we kindly ask in return is that you cite our papers,
We deeply appreciate it, if you show your appreciation for ORCA by not just citing the generic ORCA reference.

Please note that relegating all ORCA citations to the supporting information does *not* help us.
SI sections are not indexed - citations you put there will not count into any citation statistics
But we need these citations in order to attract the funding resources that allow us to do what we are doing

Therefore, if you are a happy ORCA user, please consider citing a few of the papers listed below in the main body of your paper

In addition to the list printed below, the program has created the file /kaggle/working/Phe-F3-2/Phe-F3_InterFrag.bibtex that contains the list in bibtex format
You can import this file easily into all common literature databanks and citation aid programs

It goes without saying that in many instances, there are alternative algorithms to achieve similar
results as the ones you have gotten from ORCA. It is, of course, also the case that in some instances
ORCA just re-implements algorithms worked out by others. We are fully aware of that and we are also
fully appreciative of our colleagues work. Hence this citation list should not be read as indicating
that the listed papers, which are focused on our own work, are the only ones worth citing. It simply
meant to make it easier for users to cite ORCA specific papers. It is not a substitute for doing your
own literature research and citing the relevant literature in a scientifically appropriate manner.

List of essential papers. We consider these as the minimum necessary citations

  1. Neese, F.
     Software update: the ORCA program system, version 6.0
     WIRES Comput. Molec. Sci. 2025 15(1), e70019
     doi.org/10.1002/wcms.70019

List of papers to cite with high priority. The work reported in these papers was absolutely
necessary for this run to complete.
Our perspective: the developers of density functionals and basis sets usually get cited in chemistry papers
Good! But without the algorithms to do something with them, the functionals or basis sets would not do anything.
Hence, in our opinion, the algorithm design and method developments papers are equally worthy of getting cited

  1. Neese, F.
     An improvement of the resolution of the identity approximation for the formation of the Coulomb matrix
     J. Comp. Chem. 2003 24(14), 1740-1747
     doi.org/10.1002/jcc.10318
  2. Neese, F.; Wennmohs, F.; Hansen, A.; Becker, U.
     Efficient, approximate and parallel Hartree-Fock and hybrid DFT calculations. A 'chain-of-spheres' algorithm for the Hartree-Fock exchange
     Chem. Phys. 2009 356(1-3), 98-109
     doi.org/10.1016/j.chemphys.2008.10.036
  3. Grimme, S.; Antony, J.; Ehrlich, S.; Krieg, H.
     A consistent and accurate ab initio parametrization of density functional dispersion correction (DFT-D) for the 94 elements H-Pu
     J. Chem. Phys. 2010 132 , 154104
     doi.org/10.1063/1.3382344
  4. Grimme, S.; Ehrlich, S.; Goerigk, L.
     Effect of the damping function in dispersion corrected density functional theory
     J. Comput. Chem. 2011 32(7), 1456-1465
     doi.org/10.1002/jcc.21759
  5. Helmich-Paris, B.; de Souza, B.; Neese, F.; Izsák, R.
     An improved chain of spheres for exchange algorithm
     J. Chem. Phys. 2021 155(10), 104109
     doi.org/10.1063/5.0058766
  6. Neese, F.
     The SHARK Integral Generation and Digestion System
     J. Comp. Chem. 2022 44(3), 381
     doi.org/10.1002/jcc.26942

List of suggested additional citations. These are papers that are important in the 'surrounding' of 
of this run, or papers that preceded the highly important papers. If you like your results we are grateful for a citation.

  1. Izsak, R.; Neese, F.
     An overlap fitted chain of spheres exchange method
     J. Chem. Phys. 2011 135 , 144105
     doi.org/10.1063/1.3646921
  2. Izsak, R.; Hansen, A.; Neese, F.
     The resolution of identity and chain of spheres approximations for the LPNO-CCSD singles Fock term
     Molec. Phys. 2012 110 , 2413-2417
     doi.org/10.1080/00268976.2012.687466
  3. Neese, F.
     The ORCA program system
     WIRES Comput. Molec. Sci. 2012 2(1), 73-78
     doi.org/10.1002/wcms.81
  4. Izsak, R.; Neese, F.; Klopper, W.
     Robust fitting techniques in the chain of spheres approximation to the Fock exchange: The role of the complementary space
     J. Chem. Phys. 2013 139 , 
     doi.org/10.1063/1.4819264
  5. Neese, F.
     Software update: the ORCA program system, version 4.0
     WIRES Comput. Molec. Sci. 2018 8(1), 1-6
     doi.org/10.1002/wcms.1327
  6. Neese, F.; Wennmohs, F.; Becker, U.; Riplinger, C.
     The ORCA quantum chemistry program package
     J. Chem. Phys. 2020 152(22), 224108
     doi.org/10.1063/5.0004608
  7. Neese, F.
     Software update: The ORCA program system—Version 5.0
     WIRES Comput. Molec. Sci. 2022 12(1), e1606
     doi.org/10.1002/wcms.1606

List of optional additional citations

  1. Neese, F.
     Approximate second-order SCF convergence for spin unrestricted wavefunctions
     Chem. Phys. Lett. 2000 325(1-3), 93-98
     doi.org/10.1016/s0009-2614(00)00662-x

Timings for individual modules:

Sum of individual times          ...      111.067 sec (=   1.851 min)
Startup calculation              ...        3.001 sec (=   0.050 min)   2.7 %
SCF iterations                   ...       76.696 sec (=   1.278 min)  69.1 %
SCF Response                     ...       30.939 sec (=   0.516 min)  27.9 %
Property calculations            ...        0.430 sec (=   0.007 min)   0.4 %
                             ****ORCA TERMINATED NORMALLY****
TOTAL RUN TIME: 0 days 0 hours 1 minutes 51 seconds 561 msec
