[Molden Format]
[Title]
 Molden file created by orca_2mkl for BaseName=/kaggle/working/Tyr-2/Tyr_InterFrag

[Atoms] AU
O    1   8         -2.8611152866        -2.3273961552        -2.6652584009 
O    2   8          7.7629798403        -1.6616210717        -0.7913662823 
O    3   8         -5.3012165981        -2.6032092433         0.8166338104 
N    4   7         -6.5265055747         2.5272120171        -0.1266003126 
C    5   6         -2.0137053964         2.2613181014         1.4393042407 
C    6   6         -3.9882197625         1.5331499303        -0.6099601323 
C    7   6          0.5992170393         1.2397888452         0.9331089704 
C    8   6          1.3803617929        -1.0740466352         1.9559081226 
C    9   6          2.2733915617         2.5215749641        -0.6721680269 
C   10   6         -4.1589262831        -1.3236718986        -0.7277051883 
C   11   6          3.7543510356        -2.0820870263         1.4117444748 
C   12   6          4.6517744177         1.5428650123        -1.2348982340 
C   13   6          5.3958276268        -0.7687935036        -0.1887137209 
H   14   1         -2.7201625040         1.5742439148         3.2606090605 
H   15   1         -1.9797224513         4.3294759564         1.5167395485 
H   16   1         -3.3249069922         2.2237276692        -2.4392755012 
H   17   1          0.1113067590        -2.1084373675         3.1961618404 
H   18   1          1.7082859689         4.3191448236        -1.4900358285 
H   19   1         -6.3580799536         4.4219383664         0.1729534050 
H   20   1         -7.1196660417         1.7909766051         1.5531470122 
H   21   1          4.3408653358        -3.8752311472         2.2240167973 
H   22   1          5.9450349536         2.5472072093        -2.4706506242 
H   23   1         -2.9749504992        -4.1634087135        -2.5396086206 
H   24   1          8.0257103545        -3.2642789087         0.0559604600 
[GTO]
  1 0
s   6 1.0 
     5484.6717000000         0.8317352088
      825.2349500000         1.5308074829
      188.0469600000         2.4771490916
       52.9645000000         3.2562802462
       16.8975700000         2.7928936336
        5.7996353000         0.9549376963
s   3 1.0 
       15.5396160000        -0.6179336976
        3.5999336000        -0.2757210088
        1.0137618000         0.8142076427
p   3 1.0 
       15.5396160000         3.1169455889
        3.5999336000         2.4014372483
        1.0137618000         1.0543605133
s   1 1.0 
        0.2700058000         0.2669561389
p   1 1.0 
        0.2700058000         0.2774319373
d   1 1.0 
        0.8000000000         1.9292013661

  2 0
s   6 1.0 
     5484.6717000000         0.8317352088
      825.2349500000         1.5308074829
      188.0469600000         2.4771490916
       52.9645000000         3.2562802462
       16.8975700000         2.7928936336
        5.7996353000         0.9549376963
s   3 1.0 
       15.5396160000        -0.6179336976
        3.5999336000        -0.2757210088
        1.0137618000         0.8142076427
p   3 1.0 
       15.5396160000         3.1169455889
        3.5999336000         2.4014372483
        1.0137618000         1.0543605133
s   1 1.0 
        0.2700058000         0.2669561389
p   1 1.0 
        0.2700058000         0.2774319373
d   1 1.0 
        0.8000000000         1.9292013661

  3 0
s   6 1.0 
     5484.6717000000         0.8317352088
      825.2349500000         1.5308074829
      188.0469600000         2.4771490916
       52.9645000000         3.2562802462
       16.8975700000         2.7928936336
        5.7996353000         0.9549376963
s   3 1.0 
       15.5396160000        -0.6179336976
        3.5999336000        -0.2757210088
        1.0137618000         0.8142076427
p   3 1.0 
       15.5396160000         3.1169455889
        3.5999336000         2.4014372483
        1.0137618000         1.0543605133
s   1 1.0 
        0.2700058000         0.2669561389
p   1 1.0 
        0.2700058000         0.2774319373
d   1 1.0 
        0.8000000000         1.9292013661

  4 0
s   6 1.0 
     4173.5110000000         0.6790079572
      627.4579000000         1.2504643275
      142.9021000000         2.0203691378
       40.2343300000         2.6442129843
       12.8202100000         2.2650039968
        4.3904370000         0.7791872309
s   3 1.0 
       11.6263580000        -0.5158738103
        2.7162800000        -0.2550239186
        0.7722180000         0.6727344163
p   3 1.0 
       11.6263580000         2.0680595460
        2.7162800000         1.6100106206
        0.7722180000         0.7644899877
s   1 1.0 
        0.2120313000         0.2226947990
p   1 1.0 
        0.2120313000         0.2050879094
d   1 1.0 
        0.8000000000         1.9292013661

  5 0
s   6 1.0 
     3047.5249000000         0.5363343823
      457.3695100000         0.9894506076
      103.9486900000         1.5972822308
       29.2101550000         2.0791870615
        9.2866630000         1.7741742532
        3.1639270000         0.6125798260
s   3 1.0 
        7.8682724000        -0.3995563516
        1.8812885000        -0.1841552393
        0.5442493000         0.5163903794
p   3 1.0 
        7.8682724000         1.2960827175
        1.8812885000         0.9937536282
        0.5442493000         0.4959527138
s   1 1.0 
        0.1687144000         0.1876178721
p   1 1.0 
        0.1687144000         0.1541275509
d   1 1.0 
        0.8000000000         1.9292013661

  6 0
s   6 1.0 
     3047.5249000000         0.5363343823
      457.3695100000         0.9894506076
      103.9486900000         1.5972822308
       29.2101550000         2.0791870615
        9.2866630000         1.7741742532
        3.1639270000         0.6125798260
s   3 1.0 
        7.8682724000        -0.3995563516
        1.8812885000        -0.1841552393
        0.5442493000         0.5163903794
p   3 1.0 
        7.8682724000         1.2960827175
        1.8812885000         0.9937536282
        0.5442493000         0.4959527138
s   1 1.0 
        0.1687144000         0.1876178721
p   1 1.0 
        0.1687144000         0.1541275509
d   1 1.0 
        0.8000000000         1.9292013661

  7 0
s   6 1.0 
     3047.5249000000         0.5363343823
      457.3695100000         0.9894506076
      103.9486900000         1.5972822308
       29.2101550000         2.0791870615
        9.2866630000         1.7741742532
        3.1639270000         0.6125798260
s   3 1.0 
        7.8682724000        -0.3995563516
        1.8812885000        -0.1841552393
        0.5442493000         0.5163903794
p   3 1.0 
        7.8682724000         1.2960827175
        1.8812885000         0.9937536282
        0.5442493000         0.4959527138
s   1 1.0 
        0.1687144000         0.1876178721
p   1 1.0 
        0.1687144000         0.1541275509
d   1 1.0 
        0.8000000000         1.9292013661

  8 0
s   6 1.0 
     3047.5249000000         0.5363343823
      457.3695100000         0.9894506076
      103.9486900000         1.5972822308
       29.2101550000         2.0791870615
        9.2866630000         1.7741742532
        3.1639270000         0.6125798260
s   3 1.0 
        7.8682724000        -0.3995563516
        1.8812885000        -0.1841552393
        0.5442493000         0.5163903794
p   3 1.0 
        7.8682724000         1.2960827175
        1.8812885000         0.9937536282
        0.5442493000         0.4959527138
s   1 1.0 
        0.1687144000         0.1876178721
p   1 1.0 
        0.1687144000         0.1541275509
d   1 1.0 
        0.8000000000         1.9292013661

  9 0
s   6 1.0 
     3047.5249000000         0.5363343823
      457.3695100000         0.9894506076
      103.9486900000         1.5972822308
       29.2101550000         2.0791870615
        9.2866630000         1.7741742532
        3.1639270000         0.6125798260
s   3 1.0 
        7.8682724000        -0.3995563516
        1.8812885000        -0.1841552393
        0.5442493000         0.5163903794
p   3 1.0 
        7.8682724000         1.2960827175
        1.8812885000         0.9937536282
        0.5442493000         0.4959527138
s   1 1.0 
        0.1687144000         0.1876178721
p   1 1.0 
        0.1687144000         0.1541275509
d   1 1.0 
        0.8000000000         1.9292013661

 10 0
s   6 1.0 
     3047.5249000000         0.5363343823
      457.3695100000         0.9894506076
      103.9486900000         1.5972822308
       29.2101550000         2.0791870615
        9.2866630000         1.7741742532
        3.1639270000         0.6125798260
s   3 1.0 
        7.8682724000        -0.3995563516
        1.8812885000        -0.1841552393
        0.5442493000         0.5163903794
p   3 1.0 
        7.8682724000         1.2960827175
        1.8812885000         0.9937536282
        0.5442493000         0.4959527138
s   1 1.0 
        0.1687144000         0.1876178721
p   1 1.0 
        0.1687144000         0.1541275509
d   1 1.0 
        0.8000000000         1.9292013661

 11 0
s   6 1.0 
     3047.5249000000         0.5363343823
      457.3695100000         0.9894506076
      103.9486900000         1.5972822308
       29.2101550000         2.0791870615
        9.2866630000         1.7741742532
        3.1639270000         0.6125798260
s   3 1.0 
        7.8682724000        -0.3995563516
        1.8812885000        -0.1841552393
        0.5442493000         0.5163903794
p   3 1.0 
        7.8682724000         1.2960827175
        1.8812885000         0.9937536282
        0.5442493000         0.4959527138
s   1 1.0 
        0.1687144000         0.1876178721
p   1 1.0 
        0.1687144000         0.1541275509
d   1 1.0 
        0.8000000000         1.9292013661

 12 0
s   6 1.0 
     3047.5249000000         0.5363343823
      457.3695100000         0.9894506076
      103.9486900000         1.5972822308
       29.2101550000         2.0791870615
        9.2866630000         1.7741742532
        3.1639270000         0.6125798260
s   3 1.0 
        7.8682724000        -0.3995563516
        1.8812885000        -0.1841552393
        0.5442493000         0.5163903794
p   3 1.0 
        7.8682724000         1.2960827175
        1.8812885000         0.9937536282
        0.5442493000         0.4959527138
s   1 1.0 
        0.1687144000         0.1876178721
p   1 1.0 
        0.1687144000         0.1541275509
d   1 1.0 
        0.8000000000         1.9292013661

 13 0
s   6 1.0 
     3047.5249000000         0.5363343823
      457.3695100000         0.9894506076
      103.9486900000         1.5972822308
       29.2101550000         2.0791870615
        9.2866630000         1.7741742532
        3.1639270000         0.6125798260
s   3 1.0 
        7.8682724000        -0.3995563516
        1.8812885000        -0.1841552393
        0.5442493000         0.5163903794
p   3 1.0 
        7.8682724000         1.2960827175
        1.8812885000         0.9937536282
        0.5442493000         0.4959527138
s   1 1.0 
        0.1687144000         0.1876178721
p   1 1.0 
        0.1687144000         0.1541275509
d   1 1.0 
        0.8000000000         1.9292013661

 14 0
s   3 1.0 
       18.7311370000         0.2149354183
        2.8253937000         0.3645711272
        0.6401217000         0.4150514277
s   1 1.0 
        0.1612778000         0.1813806839
p   1 1.0 
        1.1000000000         1.6057611426

 15 0
s   3 1.0 
       18.7311370000         0.2149354183
        2.8253937000         0.3645711272
        0.6401217000         0.4150514277
s   1 1.0 
        0.1612778000         0.1813806839
p   1 1.0 
        1.1000000000         1.6057611426

 16 0
s   3 1.0 
       18.7311370000         0.2149354183
        2.8253937000         0.3645711272
        0.6401217000         0.4150514277
s   1 1.0 
        0.1612778000         0.1813806839
p   1 1.0 
        1.1000000000         1.6057611426

 17 0
s   3 1.0 
       18.7311370000         0.2149354183
        2.8253937000         0.3645711272
        0.6401217000         0.4150514277
s   1 1.0 
        0.1612778000         0.1813806839
p   1 1.0 
        1.1000000000         1.6057611426

 18 0
s   3 1.0 
       18.7311370000         0.2149354183
        2.8253937000         0.3645711272
        0.6401217000         0.4150514277
s   1 1.0 
        0.1612778000         0.1813806839
p   1 1.0 
        1.1000000000         1.6057611426

 19 0
s   3 1.0 
       18.7311370000         0.2149354183
        2.8253937000         0.3645711272
        0.6401217000         0.4150514277
s   1 1.0 
        0.1612778000         0.1813806839
p   1 1.0 
        1.1000000000         1.6057611426

 20 0
s   3 1.0 
       18.7311370000         0.2149354183
        2.8253937000         0.3645711272
        0.6401217000         0.4150514277
s   1 1.0 
        0.1612778000         0.1813806839
p   1 1.0 
        1.1000000000         1.6057611426

 21 0
s   3 1.0 
       18.7311370000         0.2149354183
        2.8253937000         0.3645711272
        0.6401217000         0.4150514277
s   1 1.0 
        0.1612778000         0.1813806839
p   1 1.0 
        1.1000000000         1.6057611426

 22 0
s   3 1.0 
       18.7311370000         0.2149354183
        2.8253937000         0.3645711272
        0.6401217000         0.4150514277
s   1 1.0 
        0.1612778000         0.1813806839
p   1 1.0 
        1.1000000000         1.6057611426

 23 0
s   3 1.0 
       18.7311370000         0.2149354183
        2.8253937000         0.3645711272
        0.6401217000         0.4150514277
s   1 1.0 
        0.1612778000         0.1813806839
p   1 1.0 
        1.1000000000         1.6057611426

 24 0
s   3 1.0 
       18.7311370000         0.2149354183
        2.8253937000         0.3645711272
        0.6401217000         0.4150514277
s   1 1.0 
        0.1612778000         0.1813806839
p   1 1.0 
        1.1000000000         1.6057611426

[5D]
[7F]
[9G]
[MO]
 Sym=     1a
 Ene= -1.91912865940889E+01
 Spin= Alpha
 Occup= 2.000000
  1       0.995105759627
  2       0.030349621838
  3      -0.001012456239
  4      -0.001014225703
  5       0.001460062695
  6      -0.022014878430
  7       0.003706179290
  8      -0.002317520220
  9      -0.005601157686
 10      -0.000680960148
 11       0.000520537070
 12      -0.000356941503
 13      -0.000705553985
 14       0.000245250707
 15       0.000043819066
 16       0.000027088502
 17       0.000000572768
 18      -0.000003539083
 19       0.000001954018
 20      -0.000161776336
 21       0.000039496254
 22       0.000044628017
 23      -0.000055684361
 24      -0.000000724659
 25       0.000005732697
 26       0.000000312351
 27       0.000000141895
 28      -0.000005361976
 29      -0.000592551052
 30      -0.000625734293
 31       0.000000491867
 32      -0.000176668209
 33       0.000017579853
 34       0.002903186550
 35      -0.000480629635
 36       0.002362322977
 37       0.000659800444
 38      -0.000307897298
 39       0.000168033488
 40      -0.000159182062
 41      -0.000450552053
 42       0.000123435465
 43      -0.000010587400
 44      -0.000140098632
 45      -0.000079269237
 46       0.000151196312
 47      -0.000006313198
 48      -0.000959990056
 49      -0.000341603265
 50      -0.000985017705
 51      -0.000449407754
 52       0.000003238845
 53      -0.000174575413
 54      -0.000036009096
 55      -0.000084299910
 56      -0.000050698390
 57       0.000021740360
 58       0.000204749090
 59       0.000117673371
 60       0.000022670596
 61       0.000019319531
 62      -0.000916771790
 63       0.002489901943
 64      -0.000379061960
 65       0.000294699158
 66       0.000034714286
 67      -0.000074386817
 68      -0.000062328560
 69      -0.000068151978
 70      -0.000081050320
 71      -0.000060518221
 72      -0.000873863755
 73      -0.000022799885
 74       0.000221263303
 75      -0.000180409867
 76       0.002872294056
 77      -0.001077175873
 78      -0.000119292083
 79       0.004428889050
 80       0.000061806452
 81      -0.000009110735
 82      -0.000255055231
 83       0.000088947507
 84       0.000229303127
 85       0.000047738684
 86       0.000520718403
 87      -0.000162174090
 88      -0.000032253819
 89       0.000051272184
 90      -0.001918452731
 91       0.002056099636
 92       0.000009965877
 93      -0.000908594576
 94       0.000041900593
 95      -0.000042578258
 96      -0.000032034175
 97      -0.000008966828
 98       0.000038990323
 99       0.000019898880
100       0.000269178135
101      -0.000107622682
102      -0.000033311086
103      -0.000055679786
104      -0.000589583398
105      -0.000360484891
106       0.000592354719
107       0.000292603418
108      -0.000013614270
109       0.000003726656
110       0.000027635718
111       0.000014650728
112      -0.000062477239
113       0.000011135443
114       0.000068699422
115       0.000028202958
116       0.000006753015
117      -0.000008856266
118      -0.001147692902
119      -0.000248188782
120       0.000666563172
121      -0.000371078461
122      -0.000004165244
123       0.000024498354
124       0.000030435246
125       0.000008354731
126       0.000000937609
127       0.000041899304
128       0.000052150053
129       0.000214887280
130      -0.000311901511
131      -0.000596358585
132       0.007788338505
133       0.006565820692
134      -0.004422393110
135      -0.009373900905
136      -0.000228315720
137       0.000039975060
138       0.000015937633
139      -0.000388660616
140      -0.000046476428
141       0.000001339785
142       0.000001847649
143       0.000021641800
144       0.000021368415
145      -0.000004649547
146       0.000321913711
147      -0.000611134558
148      -0.000183412668
149       0.000187337816
150       0.000001105679
151       0.000024340143
152      -0.000011007473
153       0.000008591552
154       0.000011352049
155      -0.000004314204
156      -0.000020717170
157      -0.000017516071
158      -0.000000648729
159       0.000008487174
160       0.000828816238
161      -0.000173958656
162      -0.000142318374
163       0.000175655606
164      -0.000006884524
165      -0.000004479906
166       0.000001071108
167      -0.000000234948
168      -0.000005379701
169       0.000001407711
170       0.000020573548
171      -0.000012983638
172       0.000004042976
173       0.000001745760
174       0.000079686071
175       0.000146872580
176      -0.000400298877
177       0.000235399446
178       0.000007131432
179      -0.000003327321
180      -0.000002689911
181       0.000006837690
182      -0.000000034840
183      -0.000017138993
184       0.000640092797
185      -0.000041043366
186      -0.000024149009
187      -0.000052664780
188       0.000097513079
189       0.000156080400
190      -0.000089400164
191       0.000008279014
192       0.000006809710
193       0.000092556833
194       0.001579861598
195      -0.000029355432
196       0.000067650210
197       0.000005199321
198       0.000105520127
199      -0.000016835047
200      -0.000002474913
201      -0.000011935675
202      -0.000032396626
203      -0.000017954590
204      -0.000308477136
205       0.000014421792
206       0.000008488017
207      -0.000005076201
208       0.000172017387
209       0.000527101045
210      -0.000038862924
211      -0.000028539379
212       0.000012287644
213      -0.000155868339
214       0.000218638053
215      -0.000026093758
216      -0.000004221825
217       0.000023084288
218      -0.000024741248
219      -0.000077576025
220       0.000030123397
221       0.000002958081
222       0.000000612939
223      -0.000007675602
224       0.000028625558
225       0.000005648856
226      -0.000002255041
227      -0.000002170997
228      -0.000431161244
229       0.000378189556
230      -0.000264136109
231      -0.001696361215
232       0.000345035354
233       0.000018339598
234       0.000020734648
235      -0.000000432785
236       0.000006626669
237      -0.000002619748
 Sym=     1a
 Ene= -1.91717836632248E+01
 Spin= Alpha
 Occup= 2.000000
  1      -0.000040429007
  2       0.000021125397
  3       0.000001440253
  4       0.000005028570
  5      -0.000002861148
  6      -0.000129226817
  7       0.000020266434
  8      -0.000051372197
  9      -0.000023064402
 10       0.000000220929
 11       0.000001285292
 12      -0.000004591769
 13      -0.000002949958
 14       0.000002457606
 15       0.995137550530
 16       0.030619394912
 17      -0.001356796704
 18      -0.000981020267
 19       0.001252613911
 20      -0.023889852609
 21       0.007109665710
 22      -0.002111860629
 23      -0.002153617762
 24       0.000160530868
 25       0.000447013327
 26      -0.000643274027
 27      -0.001031351939
 28       0.000162091043
 29      -0.000017075098
 30      -0.000023282836
 31       0.000006630345
 32      -0.000000564758
 33       0.000000302203
 34       0.000172007757
 35       0.000003748415
 36       0.000053983734
 37      -0.000020915579
 38      -0.000002091291
 39       0.000003291324
 40      -0.000002230484
 41      -0.000005138653
 42       0.000001248056
 43      -0.000002558647
 44      -0.000034212434
 45      -0.000014405663
 46       0.000004859162
 47      -0.000003264160
 48       0.000032410538
 49       0.000080299128
 50      -0.000029731420
 51      -0.000003820999
 52      -0.000003569769
 53       0.000001284175
 54      -0.000000045591
 55       0.000007224511
 56      -0.000000901481
 57      -0.000020628308
 58      -0.000136640702
 59       0.000058946854
 60      -0.000034774135
 61      -0.000013614398
 62       0.002221711530
 63       0.000885181870
 64      -0.000293454260
 65      -0.000032590275
 66      -0.000017031531
 67      -0.000004604161
 68       0.000002146991
 69       0.000015124120
 70      -0.000026904287
 71      -0.000002083078
 72      -0.000034516433
 73       0.000001891710
 74      -0.000005100831
 75      -0.000021037076
 76      -0.000006602914
 77      -0.000039877868
 78      -0.000063979179
 79       0.000108106355
 80      -0.000006023179
 81      -0.000001401320
 82      -0.000002935394
 83      -0.000005060539
 84      -0.000000236426
 85      -0.000035594315
 86      -0.000305521910
 87      -0.000188294499
 88       0.000065141889
 89       0.000053861050
 90       0.003208154750
 91       0.003921905952
 92      -0.001169870545
 93      -0.001192219164
 94      -0.000007398059
 95      -0.000034777264
 96      -0.000073385347
 97      -0.000033923070
 98       0.000014037941
 99       0.000023930669
100       0.000028254626
101      -0.000226713408
102      -0.000007517630
103       0.000113640224
104      -0.008222010165
105      -0.003252323002
106      -0.000165972243
107       0.001694877546
108      -0.000015079616
109       0.000037321939
110       0.000008858749
111      -0.000019307098
112      -0.000049531434
113       0.000017297672
114      -0.000035550150
115      -0.000193035524
116       0.000174080619
117      -0.000012245067
118      -0.007565571519
119      -0.001394431086
120       0.002592570094
121      -0.000902798063
122       0.000000732262
123      -0.000031224509
124       0.000012354902
125       0.000037747867
126       0.000017418233
127       0.000001762322
128       0.000020511005
129       0.000000686552
130       0.000004549879
131       0.000005633820
132      -0.000107554966
133       0.000129851633
134      -0.000033677898
135      -0.000217501868
136       0.000002305529
137      -0.000001544988
138       0.000004860015
139       0.000005179147
140      -0.000007106956
141      -0.000069493077
142      -0.000557255766
143       0.000136324224
144      -0.000076677922
145      -0.000017837969
146       0.009602764569
147      -0.005173538216
148       0.007431447013
149      -0.002027838616
150      -0.000061016593
151       0.000108116485
152      -0.000308677208
153      -0.000340904689
154      -0.000099736238
155      -0.000075414111
156      -0.000622449725
157       0.000087041762
158       0.000020276998
159      -0.000053156529
160       0.009418942013
161      -0.006189782687
162      -0.003218939202
163       0.004959070204
164       0.000039755551
165      -0.000242172556
166      -0.000252161961
167      -0.000015702985
168       0.000249194801
169       0.000134831383
170       0.001422713502
171       0.000284148157
172      -0.000094628154
173      -0.000079835791
174      -0.000352818174
175       0.017030355545
176      -0.007609106898
177      -0.003623576646
178      -0.000134677919
179      -0.000048891805
180      -0.000077540748
181       0.000031227461
182      -0.000184677395
183      -0.000036344146
184      -0.000165635191
185      -0.000017280191
186       0.000005058730
187       0.000006379496
188      -0.000049012575
189      -0.000114574803
190      -0.000017816204
191       0.000010862662
192       0.000000314394
193       0.000019267160
194       0.000036898307
195      -0.000002883900
196       0.000001410937
197       0.000000819453
198       0.000036804606
199      -0.000271387365
200       0.000081197096
201      -0.000006158083
202      -0.000037314400
203       0.000013944511
204      -0.000298231165
205       0.000028484505
206      -0.000052619904
207       0.000018857534
208      -0.000015110841
209       0.000064787087
210       0.000000895253
211      -0.000006148048
212       0.000000208100
213      -0.000020615332
214       0.000053741042
215      -0.000000768958
216       0.000002430580
217      -0.000003935343
218       0.000371906928
219       0.002621612019
220       0.000068990844
221      -0.000106453135
222       0.000031320497
223       0.000276734243
224       0.002677143786
225       0.000026285112
226       0.000085367799
227      -0.000065226579
228      -0.000005291084
229      -0.000023156608
230       0.000000251431
231      -0.000002296085
232      -0.000000930441
233      -0.000466337142
234       0.000270334117
235       0.000009699798
236      -0.001547972447
237       0.000936538170
 Sym=     1a
 Ene= -1.91311314049248E+01
 Spin= Alpha
 Occup= 2.000000
  1      -0.000539637967
  2       0.000643883596
  3      -0.000066695050
  4       0.000260925346
  5       0.000033979138
  6      -0.003558614777
  7       0.000104828775
  8      -0.002883213315
  9      -0.000003734170
 10       0.000262623127
 11      -0.000158134136
 12      -0.000311553020
 13       0.000311380560
 14       0.000222126174
 15      -0.000014093482
 16       0.000016783265
 17      -0.000002043964
 18      -0.000003573140
 19      -0.000002463654
 20      -0.000099050370
 21       0.000036593320
 22       0.000060033072
 23      -0.000011027238
 24       0.000001083753
 25      -0.000000389412
 26       0.000005320543
 27      -0.000004848905
 28      -0.000008222968
 29      -0.995203727713
 30      -0.030874242730
 31      -0.001129138597
 32      -0.001231902190
 33       0.001519962977
 34       0.026994558796
 35       0.004045134106
 36       0.004498260688
 37      -0.005333885899
 38       0.000054156918
 39      -0.000223389788
 40      -0.000248401053
 41       0.000000617813
 42       0.000194018790
 43      -0.000030420840
 44      -0.000266389558
 45       0.000010549424
 46       0.000127178166
 47       0.000054519517
 48       0.000002842615
 49      -0.000141161789
 50      -0.001361596063
 51      -0.000418823011
 52      -0.000045888272
 53      -0.000149427169
 54      -0.000026049157
 55      -0.000113436727
 56      -0.000141599483
 57      -0.000104183186
 58      -0.000888409974
 59       0.000068411186
 60       0.000172504216
 61      -0.000007233950
 62       0.004200377043
 63       0.002032073654
 64      -0.003165734983
 65      -0.000522056660
 66       0.000073779088
 67      -0.000025706470
 68       0.000058430343
 69      -0.000001867446
 70      -0.000024634569
 71       0.000092428795
 72       0.000938448754
 73      -0.000074514910
 74      -0.000346839369
 75      -0.000132572423
 76      -0.006670482987
 77      -0.001929964243
 78       0.003486978795
 79       0.003673828203
 80      -0.000107242325
 81       0.000038344537
 82      -0.000436353388
 83      -0.000066840732
 84       0.000321914059
 85       0.000063525655
 86       0.000465364640
 87      -0.000066177193
 88      -0.000103851512
 89       0.000052217073
 90      -0.003686120241
 91       0.003786442573
 92       0.001731008113
 93      -0.001983909800
 94       0.000113005060
 95       0.000013229613
 96       0.000046230994
 97      -0.000020155479
 98       0.000041428684
 99      -0.000008410534
100      -0.000054131313
101       0.000084745526
102       0.000113092598
103       0.000000163767
104       0.001091469161
105      -0.002142129464
106       0.000967578506
107      -0.000104006951
108      -0.000000361685
109       0.000039656139
110      -0.000025063024
111      -0.000017552222
112      -0.000070012952
113       0.000014460994
114       0.000086963241
115       0.000033186439
116       0.000009386841
117      -0.000001193461
118      -0.002280782255
119       0.000359119823
120       0.000864558835
121      -0.001055166620
122      -0.000013146458
123       0.000026313349
124       0.000034328438
125      -0.000002804024
126       0.000023827332
127      -0.000282443056
128      -0.000599616835
129       0.000079709568
130       0.000224050254
131       0.000006387724
132      -0.007501092413
133       0.007765789316
134       0.008847593041
135      -0.011185601448
136       0.000233192746
137      -0.000460592340
138      -0.000495828088
139       0.000141254543
140       0.000321230420
141       0.000002075669
142       0.000040161674
143      -0.000036009412
144       0.000011456586
145      -0.000025786126
146       0.000990153301
147      -0.000634569371
148       0.000141093164
149       0.000518887178
150       0.000005321337
151      -0.000009805726
152       0.000012618069
153      -0.000012118064
154      -0.000002745907
155      -0.000002765563
156      -0.000003282684
157      -0.000030876822
158       0.000006195052
159      -0.000004997809
160       0.000707264571
161       0.000058307073
162      -0.000388848016
163       0.000387330398