
                                 *****************
                                 * O   R   C   A *
                                 *****************

                                            #,                                       
                                            ###                                      
                                            ####                                     
                                            #####                                    
                                            ######                                   
                                           ########,                                 
                                     ,,################,,,,,                         
                               ,,#################################,,                 
                          ,,##########################################,,             
                       ,#########################################, ''#####,          
                    ,#############################################,,   '####,        
                  ,##################################################,,,,####,       
                ,###########''''           ''''###############################       
              ,#####''   ,,,,##########,,,,          '''####'''          '####       
            ,##' ,,,,###########################,,,                        '##       
           ' ,,###''''                  '''############,,,                           
         ,,##''                                '''############,,,,        ,,,,,,###''
      ,#''                                            '''#######################'''  
     '                                                          ''''####''''         
             ,#######,   #######,   ,#######,      ##                                
            ,#'     '#,  ##    ##  ,#'     '#,    #''#        ,####,    ,#,          
            ##       ##  ##   ,#'  ##            #'  '#       #'       ,# #          
            ##       ##  #######   ##           ,######,      #####,      #          
            '#,     ,#'  ##    ##  '#,     ,#' ,#      #,     #,   #      #          
             '#######'   ##     ##  '#######'  #'      '#     '####' #    #          



                #########################################################
                #                        -***-                          #
                #          Department of theory and spectroscopy        #
                #                                                       #
                #                      Frank Neese                      #
                #                                                       #
                #     Directorship, Architecture, Infrastructure        #
                #                    SHARK, DRIVERS                     #
                #        Core code/Algorithms in most modules           #
                #                                                       #
                #        Max Planck Institute fuer Kohlenforschung      #
                #                Kaiser Wilhelm Platz 1                 #
                #                 D-45470 Muelheim/Ruhr                 #
                #                      Germany                          #
                #                                                       #
                #                  All rights reserved                  #
                #                        -***-                          #
                #########################################################


                         Program Version 6.1.1  -  RELEASE   -
                                (GIT: $487d211c$)
                          ($2025-11-21 10:33:24 +0100$)
                                                                         
                                  - NO-DMRG VERSION -                    
                                                                         


 With contributions from (in alphabetic order):
[Max-Planck-Institut fuer Kohlenforschung]                               
  Daniel Aravena         : Magnetic Suceptibility                        
  Michael Atanasov       : Ab Initio Ligand Field Theory (pilot matlab implementation)
  Alexander A. Auer      : GIAO ZORA, VPT2 properties, NMR spectrum      
  Ute Becker             : All parallelization in ORCA, NUMFREQ, NUMCALC 
  Giovanni Bistoni       : ED, misc. LED, open-shell LED, HFLD           
  Dmytro Bykov           : pre 5.0 version of the SCF Hessian            
  Marcos Casanova-Páez   : Triplet and SCS-CIS(D). UHF-(DLPNO)-IP/EA/STEOM-CCSD. UHF-CVS-IP/STEOM-CCSD   
  Vijay G. Chilkuri      : MRCI spin determinant printing, contributions to CSF-ICE 
  Pauline Colinet        : FMM embedding                                 
  Dipayan Datta          : RHF DLPNO-CCSD density                        
  Achintya Kumar Dutta   : EOM-CC, STEOM-CC                              
  Nicolas Foglia         : Exact transition moments, OPA infrastructure, MCD improvements    
  Dmitry Ganyushin       : Spin-Orbit,Spin-Spin,Magnetic field MRCI      
  Miquel Garcia-Rates    : C-PCM and meta-GGA Hessian, CCSD/C-PCM, Gaussian charge scheme 
  Tiago L. C. Gouveia    : GS-ROHF, GS-ROCIS                             
  Yang Guo               : DLPNO-NEVPT2, F12-NEVPT2, CIM, IAO-localization        
  Andreas Hansen         : Spin unrestricted coupled pair/coupled cluster methods 
  Ingolf Harden          : AUTO-CI MPn and infrastructure                
  Benjamin Helmich-Paris : MC-RPA, TRAH-(SCF,CASSCF), AVAS, COSX integrals, SCF dyn. polar., MC-PDFT, srDFT 
  Lee Huntington         : MR-EOM, pCC                                   
  Robert Izsak           : Overlap fitted RIJCOSX, COSX-SCS-MP3, EOM     
  Riya Kayal             : Wick's Theorem for AUTO-CI, AUTO-CI UHF-CCSDT 
  Emily Kempfer          : AUTO-CI RHF CISDT and CCSDT, approximate NEVPT4
  Christian Kollmar      : KDIIS, OOCD, Brueckner-CCSD(T), CCSD density, CASPT2, CASPT2-K, improved NEVPT2 
  Axel Koslowski         : Symmetry handling                             
  Simone Kossmann        : meta-GGA functionals, TD-DFT gradient, OOMP2, (MP2 Hessian; deprecated post 5.0) 
  Lucas Lang             : DCDCAS, Hyperfine gauge corrections, ICE-SOC+SSC
  Marvin Lechner         : AUTO-CI (C++ implementation), FIC-MRCC        
  Spencer Leger          : CASSCF response                               
  Dagmar Lenk            : GEPOL surface, SMD, ORCA-2-JSON               
  Dimitrios Liakos       : Extrapolation schemes; Compound Job, Property file
  Dimitrios Manganas     : Further ROCIS development; embedding schemes. LFT, Crystal Embedding 
  Dimitrios Pantazis     : SARC Basis sets                               
  Anastasios Papadopoulos: AUTO-CI, single reference methods and gradients 
  Taras Petrenko         : pre 6.0 DFT Hessian and TD-DFT gradient,  ECA, NRVS 
  Petra Pikulova         : Analytic Raman intensities                    
  Peter Pinski           : DLPNO-MP2, DLPNO-MP2 Gradient                 
  Shashank Vittal Rao    : ES-AILFT, MagRelax                            
  Christoph Reimann      : Effective Core Potentials                     
  Marius Retegan         : Local ZFS, SOC                                
  Christoph Riplinger    : Optimizer, TS searches, QM/MM, DLPNO-CCSD(T), (RO)-DLPNO pert. Triples 
  Michael Roemelt        : Original ROCIS implementation, recursive CI coupling coefficients
  Masaaki Saitow         : Open-shell DLPNO-CCSD energy and density      
  Barbara Sandhoefer     : DKH picture change effects                    
  Yorick L. A. Schmerwitz: GMF and freeze-and-release deltaSCF, NEB S-IDPP initial path                    
  Kantharuban Sivalingam : CASSCF convergence/infrastructure, NEVPT2, NEVPT3, NEVPT4(SD), FIC-MRCI and CEPA variants
  Bernardo de Souza      : ESD, SOC TD-DFT                               
  Georgi L. Stoychev     : AutoAux, RI-MP2 NMR, DLPNO-MP2 response, X2C  
  Van Anh Tran           : RI-MP2 g-tensors                              
  Willem Van den Heuvel  : Paramagnetic NMR                              
  Zikuan Wang            : NOTCH, Electric field optimization            
  Frank Wennmohs         : Technical directorship and infrastructure     
  Hang Xu                : AUTO-CI-Response properties                   
                                                                         
[FACCTs GmbH]                                                            
  Markus Bursch, Nicolas Foglia, Miquel Garcia-Rates, Ingolf Harden, Hagen Neugebauer, Anastasios Papadopoulos, 
  Christoph Riplinger, Bernardo de Souza, Georgi L. Stoychev                                                    
                                                                 
  APM, various basis sets, CI-OPT, improved COSX, DLPNO-Multilevel,           
  DOCKER, DRACO, updates on ESD, Fragmentator, GOAT, IRC, LR-CPCM, L-BFGS, MBIS, meta-GGA TD-DFT gradient, ML-optimized integration grids, 
  MM, NACMEs, nearIR, NEB, NEB-TS, NL-DFT gradient (VV10), 2- and 3-layer-ONIOM, interface openCOSMO-RS, QMMM,   
  Crystal-QMMM, RESP, rigid body optimization, SF, symmetry and pop. for TD-DFT, various functionals, SOLVATOR                                   
                                                                         
[Other institutions]                                                     
  V. Asgeirsson          : NEB                                           
  Christoph Bannwarth    : sTDA-DFT, sTD-DFT, PBEh-3c, B97-3c, D3        
  Giovanni Bistoni       : ETS/NOCV, ADLD/ADEX, COVALED                  
  Martin Brehm           : Molecular dynamics                            
  Ronald Cardenas        : ETS/NOCV                                      
  Martina Colucci        : COVALED                                       
  Sebastian Ehlert       : rSCAN, r2SCAN, r2SCAN-3c, D4, dhf basis sets  
  Marvin Friede          : D4 for Fr, Ra, Ac-Lr                          
  Lars Goerigk           : TD-DFT with DH, B97 family of functionals     
  Stefan Grimme          : VdW corrections, initial TS optimization, DFT functionals, gCP, sTDA/sTD-DF 
  Waldemar Hujo          : DFT-NL                                        
  H. Jonsson             : NEB                                           
  Holger Kruse           : gCP                                           
  Marcel Mueller         : wB97X-3c, vDZP basis set                      
  Hagen Neugebauer       : wr2SCAN, Native XTB                           
  Gianluca Regni         : ADLD/ADEX                                     
  Tobias Risthaus        : pre 6.0 range-separated hybrid DFT and stability analysis
  Lukas Wittmann         : regularized MP2, r2SCAN double-hybrids, wr2SCAN        
                                                                         
We gratefully acknowledge several colleagues who have allowed us to      
interface, adapt or use parts of their codes:                            
  Ed Valeev, F. Pavosevic, A. Kumar             : LibInt (2-el integral package), F12 methods 
  Garnet Chan, S. Sharma, J. Yang, R. Olivares  : DMRG                   
  Ulf Ekstrom                                   : XCFun DFT Library      
  Mihaly Kallay                                 : mrcc  (arbitrary order and MRCC methods)
  Frank Weinhold                                : gennbo (NPA and NBO analysis)           
  Simon Mueller                                 : openCOSMO-RS                            
  Christopher J. Cramer and Donald G. Truhlar   : smd solvation model                     
  S Lehtola, MJT Oliveira, MAL Marques          : LibXC Library                           
  Liviu Ungur et al                             : ANISO software                          


 Your calculation uses the libint2 library for the computation of 2-el integrals
 For citations please refer to: http://libint.valeyev.net

 Your ORCA version has been built with support for libXC version: 7.0.0
 For citations please refer to: https://libxc.gitlab.io

 This ORCA versions uses:
   CBLAS   interface :  Fast vector & matrix operations
   LAPACKE interface :  Fast linear algebra routines
   SCALAPACK package :  Parallel linear algebra routines
   Shared memory     :  Shared parallel matrices
   BLAS/LAPACK       :  OpenBLAS 0.3.29  USE64BITINT DYNAMIC_ARCH NO_AFFINITY Haswell SINGLE_THREADED
        Core in use  :  Haswell
   Copyright (c) 2011-2014, The OpenBLAS Project


  ***********************************
  * Starting time: Sat Mar 28 20:04:15 2026
  * Host name:     b16d68e4ac9b
  * Process ID:    489
  * Working dir.:  /kaggle/working
  ***********************************

NOTE: MaxCore=3000 MB was set to SCF,MP2,MDCI,CIPSI,MRCI,RASCI and CIS
      => If you want to overwrite this, your respective input block should be placed after the MaxCore statement
Your calculation utilizes the atom-pairwise dispersion correction
with the Becke-Johnson damping scheme (D3BJ)


Warning: RI is on but no J-basis has been assigned. Assigning Def2/J (nothing to worry about!)
================================================================================

----- Orbital basis set information -----
Your calculation utilizes the basis: 6-31G(d,p)
   H-He, Li-Ne : W. J. Hehre, R. Ditchfield and J.A. Pople, J. Chem. Phys. 56, 2257 (1972).
                 Note: He and Ne are unpublished basis sets taken from the Gaussian program.
                 Note: Li and B from J. D. Dill and J. A. Pople, J. Chem. Phys. 62, 2921 (1975).
   Na - Ar     : M. M. Francl, W. J. Pietro, W. J. Hehre, J. S. Binkley, M. S. Gordon, 
                 D. J. DeFrees and J. A. Pople, J. Chem. Phys. 77, 3654 (1982).
   K - Zn      : V. A. Rassolov, J. A. Pople, M. A. Ratner, and T. L. Windus, J. Chem. Phys. 109, 1223 (1998).

----- AuxJ basis set information -----
Your calculation utilizes the auxiliary basis: def2/J
   H-Rn: F. Weigend, Phys. Chem. Chem. Phys. 8, 1057 (2006).
   Fr-Lr: K. Eichkorn, F. Weigend, O. Treutler, R. Ahlrichs; Theor. Chem. Acc. 97, 119 (1997).

================================================================================
                                        WARNINGS
                       Please study these warnings very carefully!
================================================================================


================================================================================
                                       INPUT FILE
================================================================================
NAME = /kaggle/working/Trp-2/Trp_InterFrag.inp
|  1> 
|  2> !RKS B3LYP 6-31G(d,p) TightSCF D3BJ # def2-TZVPP
|  3> 
|  4> %pal nprocs 2 end
|  5> %maxcore 3000
|  6> 
|  7> %elprop
|  8>   Polar 1      # polarizability via CP-SCF
|  9> end
| 10> 
| 11> %output
| 12>   PrintLevel Normal
| 13>   Print[ P_OrbEn ] 2
| 14> end
| 15> 
| 16> *xyz 0 1
| 17>   O      1.500725   -0.844121    1.703630
| 18>   O      2.414833   -1.949133   -0.034064
| 19>   N     -1.678452    2.024362    0.532164
| 20>   N      3.904427    0.393485   -0.593044
| 21>   C      0.162553    1.140145   -0.437111
| 22>   C      1.553499    0.986009   -0.971492
| 23>   C     -0.862882    0.125145   -0.378492
| 24>   C      2.595858    0.477995    0.059117
| 25>   C     -2.005105    0.718284    0.234935
| 26>   C     -0.380693    2.271281    0.127346
| 27>   C     -0.929930   -1.221352   -0.781759
| 28>   C     -3.192278    0.008197    0.446546
| 29>   C      2.188154   -0.899928    0.546896
| 30>   C     -2.108081   -1.929884   -0.571908
| 31>   C     -3.227884   -1.321009    0.036027
| 32>   H      1.563667    0.295562   -1.822211
| 33>   H      1.924004    1.951779   -1.332977
| 34>   H      2.568738    1.152604    0.924881
| 35>   H      0.059588    3.248234    0.270775
| 36>   H     -2.292150    2.698478    0.966032
| 37>   H     -0.070856   -1.700510   -1.241838
| 38>   H     -4.050961    0.479942    0.914980
| 39>   H     -2.171014   -2.970116   -0.878117
| 40>   H      4.603159    0.154410    0.108964
| 41>   H      4.144344    1.331537   -0.909476
| 42>   H     -4.133775   -1.900909    0.186564
| 43>   H      1.200714   -1.746887    1.917228
| 44> 
| 45> *
| 46> 
| 47>                          ****END OF INPUT****
================================================================================

                       ****************************
                       * Single Point Calculation *
                       ****************************

---------------------------------
CARTESIAN COORDINATES (ANGSTROEM)
---------------------------------
  O      1.500725   -0.844121    1.703630
  O      2.414833   -1.949133   -0.034064
  N     -1.678452    2.024362    0.532164
  N      3.904427    0.393485   -0.593044
  C      0.162553    1.140145   -0.437111
  C      1.553499    0.986009   -0.971492
  C     -0.862882    0.125145   -0.378492
  C      2.595858    0.477995    0.059117
  C     -2.005105    0.718284    0.234935
  C     -0.380693    2.271281    0.127346
  C     -0.929930   -1.221352   -0.781759
  C     -3.192278    0.008197    0.446546
  C      2.188154   -0.899928    0.546896
  C     -2.108081   -1.929884   -0.571908
  C     -3.227884   -1.321009    0.036027
  H      1.563667    0.295562   -1.822211
  H      1.924004    1.951779   -1.332977
  H      2.568738    1.152604    0.924881
  H      0.059588    3.248234    0.270775
  H     -2.292150    2.698478    0.966032
  H     -0.070856   -1.700510   -1.241838
  H     -4.050961    0.479942    0.914980
  H     -2.171014   -2.970116   -0.878117
  H      4.603159    0.154410    0.108964
  H      4.144344    1.331537   -0.909476
  H     -4.133775   -1.900909    0.186564
  H      1.200714   -1.746887    1.917228

----------------------------
CARTESIAN COORDINATES (A.U.)
----------------------------
  NO LB      ZA    FRAG     MASS         X           Y           Z
   0 O     8.0000    0    15.999    2.835959   -1.595158    3.219394
   1 O     8.0000    0    15.999    4.563373   -3.683328   -0.064372
   2 N     7.0000    0    14.007   -3.171815    3.825490    1.005644
   3 N     7.0000    0    14.007    7.378298    0.743579   -1.120691
   4 C     6.0000    0    12.011    0.307181    2.154562   -0.826020
   5 C     6.0000    0    12.011    2.935688    1.863287   -1.835854
   6 C     6.0000    0    12.011   -1.630611    0.236490   -0.715246
   7 C     6.0000    0    12.011    4.905461    0.903280    0.111715
   8 C     6.0000    0    12.011   -3.789099    1.357360    0.443963
   9 C     6.0000    0    12.011   -0.719406    4.292099    0.240649
  10 C     6.0000    0    12.011   -1.757313   -2.308021   -1.477310
  11 C     6.0000    0    12.011   -6.032531    0.015490    0.843850
  12 C     6.0000    0    12.011    4.135012   -1.700617    1.033484
  13 C     6.0000    0    12.011   -3.983696   -3.646952   -1.080749
  14 C     6.0000    0    12.011   -6.099817   -2.496345    0.068081
  15 H     1.0000    0     1.008    2.954902    0.558531   -3.443480
  16 H     1.0000    0     1.008    3.635841    3.688328   -2.518961
  17 H     1.0000    0     1.008    4.854211    2.178106    1.747772
  18 H     1.0000    0     1.008    0.112605    6.138273    0.511691
  19 H     1.0000    0     1.008   -4.331536    5.099384    1.825536
  20 H     1.0000    0     1.008   -0.133898   -3.213498   -2.346734
  21 H     1.0000    0     1.008   -7.655207    0.906959    1.729062
  22 H     1.0000    0     1.008   -4.102622   -5.612706   -1.659401
  23 H     1.0000    0     1.008    8.698710    0.291793    0.205912
  24 H     1.0000    0     1.008    7.831675    2.516240   -1.718661
  25 H     1.0000    0     1.008   -7.811703   -3.592197    0.352555
  26 H     1.0000    0     1.008    2.269021   -3.301138    3.623036

--------------------------------
INTERNAL COORDINATES (ANGSTROEM)
--------------------------------
 O      0   0   0     0.000000000000     0.00000000     0.00000000
 O      1   0   0     2.253048022889     0.00000000     0.00000000
 N      1   2   0     4.439334827176   113.82439343     0.00000000
 N      2   1   3     2.831820619171    87.70372946    77.76365079
 C      3   1   2     2.260670948798    43.71519135   332.54010127
 C      5   3   1     1.498015932683   161.68604645   256.99394700
 C      5   3   1     1.444014586625    71.28987913    73.29035931
 C      4   2   1     1.464516554287    59.32476184   331.42609444
 C      3   1   2     1.378726587447    67.32238807    63.31782655
 C      5   3   1     1.375934799277    35.01924591   253.33128304
 C      7   5   3     1.407186511661   134.01036481   180.08010211
 C      9   3   1     1.399422200345   130.47139088   134.27360607
 C      2   1   3     1.220544559885    30.22420966    62.33351197
 C     11   7   5     1.390717374604   118.98765156   180.12821802
 C     12   9   3     1.391611377876   117.50062532   180.07097847
 H      6   5   3     1.095693052362   110.51325220   210.24203037
 H      6   5   3     1.095744976329   109.93525019   328.40769883
 H      8   4   2     1.097898037605   114.12212450   134.29192535
 H     10   5   3     1.081136624674   129.53156455   180.30964140
 H      3   1   2     1.009603416240   138.88126738   181.94342126
 H     11   7   5     1.085943466614   120.39293403     0.64977821
 H     12   9   3     1.085960520401   121.03690159     0.00000000
 H     14  11   7     1.086189268955   119.63421184   180.06663877
 H      4   2   1     1.018920259644    91.75479490    82.12436485
 H      4   2   1     1.018641709443   161.26427300   284.16905160
 H     15  12   9     1.086086507719   119.36982436   179.93504822
 H      1   2   3     0.974995977674    80.77506166   114.25821218

---------------------------
INTERNAL COORDINATES (A.U.)
---------------------------
 O      0   0   0     0.000000000000     0.00000000     0.00000000
 O      1   0   0     4.257643729833     0.00000000     0.00000000
 N      1   2   0     8.389127040140   113.82439343     0.00000000
 N      2   1   3     5.351365430624    87.70372946    77.76365079
 C      3   1   2     4.272048972140    43.71519135   332.54010127
 C      5   3   1     2.830839857022   161.68604645   256.99394700
 C      5   3   1     2.728792102109    71.28987913    73.29035931
 C      4   2   1     2.767535206197    59.32476184   331.42609444
 C      3   1   2     2.605415663831    67.32238807    63.31782655
 C      5   3   1     2.600139948765    35.01924591   253.33128304
 C      7   5   3     2.659197126388   134.01036481   180.08010211
 C      9   3   1     2.644524704382   130.47139088   134.27360607
 C      2   1   3     2.306494952431    30.22420966    62.33351197
 C     11   7   5     2.628074967688   118.98765156   180.12821802
 C     12   9   3     2.629764389034   117.50062532   180.07097847
 H      6   5   3     2.070559795804   110.51325220   210.24203037
 H      6   5   3     2.070657917882   109.93525019   328.40769883
 H      8   4   2     2.074726614043   114.12212450   134.29192535
 H     10   5   3     2.043052133985   129.53156455   180.30964140
 H      3   1   2     1.907873960565   138.88126738   181.94342126
 H     11   7   5     2.052135748821   120.39293403     0.64977821
 H     12   9   3     2.052167975809   121.03690159     0.00000000
 H     14  11   7     2.052600247930   119.63421184   180.06663877
 H      4   2   1     1.925480243031    91.75479490    82.12436485
 H      4   2   1     1.924953859437   161.26427300   284.16905160
 H     15  12   9     2.052406057337   119.36982436   179.93504822
 H      1   2   3     1.842475379479    80.77506166   114.25821218

---------------------
BASIS SET INFORMATION
---------------------
There are 4 groups of distinct atoms

 Group   1 Type O   : 10s4p1d contracted to 3s2p1d pattern {631/31/1}
 Group   2 Type N   : 10s4p1d contracted to 3s2p1d pattern {631/31/1}
 Group   3 Type C   : 10s4p1d contracted to 3s2p1d pattern {631/31/1}
 Group   4 Type H   : 4s1p contracted to 2s1p pattern {31/1}

Atom   0O    basis set group =>   1
Atom   1O    basis set group =>   1
Atom   2N    basis set group =>   2
Atom   3N    basis set group =>   2
Atom   4C    basis set group =>   3
Atom   5C    basis set group =>   3
Atom   6C    basis set group =>   3
Atom   7C    basis set group =>   3
Atom   8C    basis set group =>   3
Atom   9C    basis set group =>   3
Atom  10C    basis set group =>   3
Atom  11C    basis set group =>   3
Atom  12C    basis set group =>   3
Atom  13C    basis set group =>   3
Atom  14C    basis set group =>   3
Atom  15H    basis set group =>   4
Atom  16H    basis set group =>   4
Atom  17H    basis set group =>   4
Atom  18H    basis set group =>   4
Atom  19H    basis set group =>   4
Atom  20H    basis set group =>   4
Atom  21H    basis set group =>   4
Atom  22H    basis set group =>   4
Atom  23H    basis set group =>   4
Atom  24H    basis set group =>   4
Atom  25H    basis set group =>   4
Atom  26H    basis set group =>   4
---------------------------------
AUXILIARY/J BASIS SET INFORMATION
---------------------------------
There are 4 groups of distinct atoms

 Group   1 Type O   : 12s5p4d2f1g contracted to 6s4p3d1f1g pattern {711111/2111/211/2/1}
 Group   2 Type N   : 12s5p4d2f1g contracted to 6s4p3d1f1g pattern {711111/2111/211/2/1}
 Group   3 Type C   : 12s5p4d2f1g contracted to 6s4p3d1f1g pattern {711111/2111/211/2/1}
 Group   4 Type H   : 5s2p1d contracted to 3s1p1d pattern {311/2/1}

Atom   0O    basis set group =>   1
Atom   1O    basis set group =>   1
Atom   2N    basis set group =>   2
Atom   3N    basis set group =>   2
Atom   4C    basis set group =>   3
Atom   5C    basis set group =>   3
Atom   6C    basis set group =>   3
Atom   7C    basis set group =>   3
Atom   8C    basis set group =>   3
Atom   9C    basis set group =>   3
Atom  10C    basis set group =>   3
Atom  11C    basis set group =>   3
Atom  12C    basis set group =>   3
Atom  13C    basis set group =>   3
Atom  14C    basis set group =>   3
Atom  15H    basis set group =>   4
Atom  16H    basis set group =>   4
Atom  17H    basis set group =>   4
Atom  18H    basis set group =>   4
Atom  19H    basis set group =>   4
Atom  20H    basis set group =>   4
Atom  21H    basis set group =>   4
Atom  22H    basis set group =>   4
Atom  23H    basis set group =>   4
Atom  24H    basis set group =>   4
Atom  25H    basis set group =>   4
Atom  26H    basis set group =>   4


           ************************************************************
           *        Program running with 2 parallel MPI-processes     *
           *              working on a common directory               *
           ************************************************************
------------------------------------------------------------------------------
                             ORCA STARTUP CALCULATIONS
                           -- RI-GTO INTEGRALS CHOSEN --
------------------------------------------------------------------------------
------------------------------------------------------------------------------
                   ___                                                        
                  /   \      - P O W E R E D   B Y -                         
                 /     \                                                     
                 |  |  |   _    _      __       _____    __    __             
                 |  |  |  | |  | |    /  \     |  _  \  |  |  /  |          
                  \  \/   | |  | |   /    \    | | | |  |  | /  /          
                 / \  \   | |__| |  /  /\  \   | |_| |  |  |/  /          
                |  |  |   |  __  | /  /__\  \  |    /   |      \           
                |  |  |   | |  | | |   __   |  |    \   |  |\   \          
                \     /   | |  | | |  |  |  |  | |\  \  |  | \   \       
                 \___/    |_|  |_| |__|  |__|  |_| \__\ |__|  \__/        
                                                                              
                      - O R C A' S   B I G   F R I E N D -                    
                                      &                                       
                       - I N T E G R A L  F E E D E R -                       
                                                                              
 v1 FN, 2020, v2 2021, v3 2022-2024                                           
------------------------------------------------------------------------------


----------------------
SHARK INTEGRAL PACKAGE
----------------------

Number of atoms                             ...     27
Number of basis functions                   ...    270
Number of shells                            ...    126
Maximum angular momentum                    ...      2
Integral batch strategy                     ... SHARK/LIBINT Hybrid
RI-J (if used) integral strategy            ... SPLIT-RIJ (Revised 2003 algorithm where possible)
Printlevel                                  ...      1
Contraction scheme used                     ... SEGMENTED contraction
Prescreening option                         ... SCHWARTZ
   Thresh                                   ... 2.500e-11
   Tcut                                     ... 2.500e-12
   Tpresel                                  ... 2.500e-12 
Coulomb Range Separation                    ... NOT USED
Exchange Range Separation                   ... NOT USED
Multipole approximations                    ... NOT USED
Finite Nucleus Model                        ... NOT USED
CABS basis                                  ... NOT available
Auxiliary Coulomb fitting basis             ... AVAILABLE
   # of basis functions in Aux-J            ...    867
   # of shells in Aux-J                     ...    285
   Maximum angular momentum in Aux-J        ...      4
Auxiliary J/K fitting basis                 ... NOT available
Auxiliary Correlation fitting basis         ... NOT available
Auxiliary 'external' fitting basis          ... NOT available

Checking pre-screening integrals            ... done (  0.0 sec) Dimension = 126
   => SHARK Basis and OBASIS are compatible. Storing Pre-screening
Shell pair information
Shell pair cut-off parameter TPreSel        ...   2.5e-12
Total number of shell pairs                 ...      8001
Shell pairs after pre-screening             ...      6553
Total number of primitive shell pairs       ...     41106
Primitive shell pairs kept                  ...     20536
          la=0 lb=0:   1960 shell pairs
          la=1 lb=0:   2384 shell pairs
          la=1 lb=1:    766 shell pairs
          la=2 lb=0:    826 shell pairs
          la=2 lb=1:    517 shell pairs
          la=2 lb=2:    100 shell pairs

Checking whether 4 symmetric matrices of dimension 270 fit in memory
:Max Core in MB      =   3000.00
 MB in use           =     12.31
 MB left             =   2987.69
 MB needed           =      1.12
 Data fit in memory  = YES
Calculating RI/J V-Matrix + Cholesky decomp.... done (  0.0 sec)
Calculating Nuclear repulsion               ... done (  0.0 sec) ENN=    978.797846008688 Eh

Diagonalization of the overlap matrix:
Smallest eigenvalue                        ... 3.799e-04
Time for diagonalization                   ...    0.009 sec
Threshold for overlap eigenvalues          ... 1.000e-07
Number of eigenvalues below threshold      ... 0
Time for construction of square roots      ...    0.004 sec
Total time needed                          ...    0.014 sec

-------------------
DFT GRID GENERATION
-------------------

General Integration Accuracy     IntAcc      ... 4.388
Radial Grid Type                 RadialGrid  ... OptM3 with GC (2021)
Angular Grid (max. ang.)         AngularGrid ... 4 (Lebedev-302)
Angular grid pruning method      GridPruning ... 4 (adaptive)
Weight generation scheme         WeightScheme... mBecke (2022)
Basis function cutoff            BFCut       ... 1.0000e-11
Integration weight cutoff        WCut        ... 1.0000e-14
Partially contracted basis set               ... off
Rotationally invariant grid construction     ... off
Angular grids for H and He will be reduced by one unit

Total number of grid points                  ...   128211
Total number of batches                      ...     2017
Average number of points per batch           ...       63
Average number of grid points per atom       ...     4749

--------------------
COSX GRID GENERATION
--------------------

GRIDX 1
-------
General Integration Accuracy     IntAcc      ... 3.816
Radial Grid Type                 RadialGrid  ... OptM3 with GC (2021)
Angular Grid (max. ang.)         AngularGrid ... 1 (Lebedev-50)
Angular grid pruning method      GridPruning ... 4 (adaptive)
Weight generation scheme         WeightScheme... mBecke (2022)
Basis function cutoff            BFCut       ... 1.0000e-11
Integration weight cutoff        WCut        ... 1.0000e-14
Partially contracted basis set               ... on
Rotationally invariant grid construction     ... off
Angular grids for H and He will be reduced by one unit

Total number of grid points                  ...    16317
Total number of batches                      ...      142
Average number of points per batch           ...      114
Average number of grid points per atom       ...      604
UseSFitting                                  ... on

GRIDX 2
-------
General Integration Accuracy     IntAcc      ... 4.020
Radial Grid Type                 RadialGrid  ... OptM3 with GC (2021)
Angular Grid (max. ang.)         AngularGrid ... 2 (Lebedev-110)
Angular grid pruning method      GridPruning ... 4 (adaptive)
Weight generation scheme         WeightScheme... mBecke (2022)
Basis function cutoff            BFCut       ... 1.0000e-11
Integration weight cutoff        WCut        ... 1.0000e-14
Partially contracted basis set               ... on
Rotationally invariant grid construction     ... off
Angular grids for H and He will be reduced by one unit

Total number of grid points                  ...    35489
Total number of batches                      ...      292
Average number of points per batch           ...      121
Average number of grid points per atom       ...     1314
UseSFitting                                  ... on

GRIDX 3
-------
General Integration Accuracy     IntAcc      ... 4.338
Radial Grid Type                 RadialGrid  ... OptM3 with GC (2021)
Angular Grid (max. ang.)         AngularGrid ... 3 (Lebedev-194)
Angular grid pruning method      GridPruning ... 4 (adaptive)
Weight generation scheme         WeightScheme... mBecke (2022)
Basis function cutoff            BFCut       ... 1.0000e-11
Integration weight cutoff        WCut        ... 1.0000e-14
Partially contracted basis set               ... on
Rotationally invariant grid construction     ... off
Angular grids for H and He will be reduced by one unit

Total number of grid points                  ...    77744
Total number of batches                      ...      621
Average number of points per batch           ...      125
Average number of grid points per atom       ...     2879
UseSFitting                                  ... on
Grids setup in   2.9 sec
Initializing property integral containers    ... done (  0.0 sec)

SHARK setup successfully completed in   3.1 seconds

Maximum memory used throughout the entire STARTUP-calculation: 44.4 MB


           ************************************************************
           *        Program running with 2 parallel MPI-processes     *
           *              working on a common directory               *
           ************************************************************
-------------------------------------------------------------------------------
                                 ORCA GUESS
                   Start orbitals & Density for SCF / CASSCF
-------------------------------------------------------------------------------

------------
SCF SETTINGS
------------
Hamiltonian:
 Density Functional     Method          .... DFT(GTOs)
 Exchange Functional    Exchange        .... B88
   X-Alpha parameter    XAlpha          ....  0.666667
   Becke's b parameter  XBeta           ....  0.004200
 Correlation Functional Correlation     .... LYP
 LDA part of GGA corr.  LDAOpt          .... VWN-5
 Gradients option       PostSCFGGA      .... off
 Hybrid DFT is turned on
   Fraction HF Exchange ScalHFX         ....  0.200000
   Scaling of DF-GGA-X  ScalDFX         ....  0.720000
   Scaling of DF-GGA-C  ScalDFC         ....  0.810000
   Scaling of DF-LDA-C  ScalLDAC        ....  1.000000
   Perturbative correction              ....  0.000000
   NL short-range parameter             ....  4.800000
 RI-approximation to the Coulomb term is turned on
   Number of AuxJ basis functions       .... 867
   RIJ-COSX (HFX calculated with COS-X)).... on


General Settings:
 Integral files         IntName         .... /kaggle/working/Trp-2/Trp_InterFrag
 Hartree-Fock type      HFTyp           .... RHF
 Total Charge           Charge          ....    0
 Multiplicity           Mult            ....    1
 Number of Electrons    NEL             ....  108
 Basis Dimension        Dim             ....  270
 Nuclear Repulsion      ENuc            ....    978.7978460087 Eh

Convergence Acceleration:
 AO-DIIS                CNVDIIS         .... on
   Start iteration      DIISMaxIt       ....    12
   Startup error        DIISStart       ....  0.200000
   # of expansion vecs  DIISMaxEq       ....     5
   Bias factor          DIISBfac        ....   1.050
   Max. coefficient     DIISMaxC        ....  10.000
 MO-DIIS                CNVKDIIS        .... off
 Trust-Rad. Augm. Hess. CNVTRAH         .... auto
   Auto Start mean grad. ratio tolernc. ....  1.125000
   Auto Start start iteration           ....    50
   Auto Start num. interpolation iter.  ....    10
   Max. Number of Micro iterations      ....    24
   Max. Number of Macro iterations      .... Maxiter - #DIIS iter
   Number of Davidson start vectors     ....     2
   Converg. threshold    (grad. norm)   ....   1.000e-05
   Grad. Scal. Fac. for Micro threshold ....   0.100
   Minimum threshold for Micro iter.    ....   1.000e-02
   NR start threshold (gradient norm)   ....   1.000e-04
   Initial trust radius                 ....   0.400
   Minimum AH scaling param. (alpha)    ....   1.000
   Maximum AH scaling param. (alpha)    .... 1000.000
   Quad. conv. algorithm                .... NR
   White noise on init. David. guess    .... on
   Maximum white noise                  ....   0.010
   Pseudo random numbers                .... off
   Inactive MOs                         .... canonical
   Orbital update algorithm             .... Taylor
   Preconditioner                       .... Diag
   Full preconditioner red. dimension   ....   250
 SOSCF                 CNVSOSCF           .... on
   Start iteration     SOSCFMaxIt         ....   150
   Startup grad/error  SOSCFStart         ....  0.003300
   Hessian update      SOSCFHessUp        .... L-BFGS
   Autom. constraints  SOSCFAutoConstrain .... off
 Level Shifting         CNVShift        .... on
   Level shift para.    LevelShift      ....    0.2500
   Turn off err/grad.   ShiftErr        ....    0.0010
 Zerner damping         CNVZerner       .... off
 Static damping         CNVDamp         .... on
   Fraction old density DampFac         ....    0.7000
   Max. Damping (<1)    DampMax         ....    0.9800
   Min. Damping (>=0)   DampMin         ....    0.0000
   Turn off err/grad.   DampErr         ....    0.1000

SCF Procedure:
 Maximum # iterations   MaxIter         ....   125
 SCF integral mode      SCFMode         .... Direct
   Integral package                     .... SHARK and LIBINT hybrid scheme
 Reset frequency        DirectResetFreq ....    20
 Integral Threshold     Thresh          ....  2.500e-11 Eh
 Primitive CutOff       TCut            ....  2.500e-12 Eh

Convergence Tolerance:
 Convergence Check Mode ConvCheckMode   .... Total+1el-Energy
 Convergence forced     ConvForced      .... 0
 Energy Change          TolE            ....  1.000e-08 Eh
 1-El. energy change                    ....  1.000e-05 Eh
 Orbital Gradient       TolG            ....  1.000e-05
 Orbital Rotation angle TolX            ....  1.000e-05
 DIIS Error             TolErr          ....  5.000e-07

------------------------------
INITIAL GUESS: MODEL POTENTIAL
------------------------------
Loading Hartree-Fock densities                     ... done
Calculating cut-offs                               ... done
Initializing the effective Hamiltonian             ... done
Setting up the integral package (SHARK)            ... done
Starting the Coulomb interaction                   ... done (   0.3 sec)
Making the grid                                    ... done (   0.4 sec)
Mapping shells                                     ... done
Starting the XC term evaluation                    ... done (   0.3 sec)
  promolecular density results
     # of electrons  =    107.993138160
     EX              =    -89.714939059
     EC              =     -3.687750674
     EX+EC           =    -93.402689734
Transforming the Hamiltonian                       ... done (   0.0 sec)
Diagonalizing the Hamiltonian                      ... done (   0.0 sec)
Back transforming the eigenvectors                 ... done (   0.0 sec)
Now organizing SCF variables                       ... done
                      ------------------
                      INITIAL GUESS DONE (   1.0 sec)
                      ------------------
             **** ENERGY FILE WAS UPDATED (/kaggle/working/Trp-2/Trp_InterFrag.en.tmp) ****
Finished Guess after   1.3 sec
Maximum memory used throughout the entire GUESS-calculation: 17.8 MB


           ************************************************************
           *        Program running with 2 parallel MPI-processes     *
           *              working on a common directory               *
           ************************************************************

-------------------------------------------------------------------------------------------
                                      ORCA LEAN-SCF
                              memory conserving SCF solver
-------------------------------------------------------------------------------------------

----------------------------------------D-I-I-S--------------------------------------------
Iteration    Energy (Eh)           Delta-E    RMSDP     MaxDP     DIISErr   Damp  Time(sec)
-------------------------------------------------------------------------------------------
               ***  Starting incremental Fock matrix formation  ***
    1    -685.5250789274302861     0.00e+00  3.87e-03  9.81e-02  2.68e-01  0.700   8.7
    2    -685.7305533149808525    -2.05e-01  2.64e-03  5.47e-02  1.14e-01  0.700   4.2
                               ***Turning on AO-DIIS***
    3    -685.8103655324384818    -7.98e-02  1.07e-03  1.73e-02  3.68e-02  0.700   4.1
    4    -685.8585541550055495    -4.82e-02  1.84e-03  2.37e-02  1.75e-02  0.000   3.9
    5    -685.9642435610933262    -1.06e-01  3.83e-04  8.97e-03  7.01e-03  0.000   4.0
                              *** Initializing SOSCF ***
---------------------------------------S-O-S-C-F--------------------------------------
Iteration    Energy (Eh)           Delta-E    RMSDP     MaxDP     MaxGrad    Time(sec)
--------------------------------------------------------------------------------------
    6    -685.9649250774937173    -6.82e-04  1.31e-04  2.56e-03  2.32e-03     3.7
               *** Restarting incremental Fock matrix formation ***
    7    -685.9649719491146698    -4.69e-05  9.00e-05  1.98e-03  4.78e-04     8.5
    8    -685.9649604415565136     1.15e-05  4.82e-05  1.48e-03  1.15e-03     5.8
    9    -685.9649789335633159    -1.85e-05  1.87e-05  3.32e-04  8.29e-05     5.5
   10    -685.9649787925816327     1.41e-07  9.23e-06  2.12e-04  8.10e-05     5.0
   11    -685.9649793060045795    -5.13e-07  4.91e-06  9.76e-05  2.75e-05     4.6
   12    -685.9649792779594009     2.80e-08  3.06e-06  6.57e-05  4.67e-05     4.3
   13    -685.9649793251362553    -4.72e-08  8.38e-07  1.75e-05  3.90e-06     4.0
   14    -685.9649793177341053     7.40e-09  5.27e-07  1.19e-05  6.36e-06     3.2
                 **** Energy Check signals convergence ****

               *****************************************************
               *                     SUCCESS                       *
               *           SCF CONVERGED AFTER  14 CYCLES          *
               *****************************************************

Recomputing exchange energy using gridx3       ... done (   14.553 sec)
Old exchange energy                            :    -18.219947363 Eh
New exchange energy                            :    -18.219969817 Eh
Exchange energy change after final integration :     -0.000022454 Eh
Total energy after final integration           :   -685.965001780 Eh
             **** ENERGY FILE WAS UPDATED (/kaggle/working/Trp-2/Trp_InterFrag.en.tmp) ****

----------------
TOTAL SCF ENERGY
----------------

Total Energy       :       -685.96500178042515 Eh          -18666.05666 eV

Components:
Nuclear Repulsion  :        978.79784600868811 Eh           26634.44346 eV
Electronic Energy  :      -1664.76282533502126 Eh          -45300.49951 eV
One Electron Energy:      -2876.00575594401334 Eh          -78260.09529 eV
Two Electron Energy:       1211.24293060899208 Eh           32959.59578 eV

Virial components:
Potential Energy   :      -1367.69195160747836 Eh          -37216.79007 eV
Kinetic Energy     :        681.72694982705320 Eh           18550.73341 eV
Virial Ratio       :          2.00621664136125

DFT components:
N(Alpha)           :       53.999972360845 electrons
N(Beta)            :       53.999972360845 electrons
N(Total)           :      107.999944721691 electrons
E(X)               :      -72.382337533519 Eh       
E(C)               :       -4.346282865907 Eh       
E(XC)              :      -76.728620399426 Eh       

---------------
SCF CONVERGENCE
---------------

  Last Energy change         ...   -7.4022e-09  Tolerance :   1.0000e-08
  Last MAX-Density change    ...    1.1947e-05  Tolerance :   1.0000e-07
  Last RMS-Density change    ...    5.2747e-07  Tolerance :   5.0000e-09
  Last DIIS Error            ...    2.3179e-03  Tolerance :   5.0000e-07
  Last Orbital Gradient      ...    6.3627e-06  Tolerance :   1.0000e-05
  Last Orbital Rotation      ...    9.2005e-06  Tolerance :   1.0000e-05


----------------
ORBITAL ENERGIES
----------------

  NO   OCC          E(Eh)            E(eV) 
   0   2.0000     -19.182573      -521.9843 
   1   2.0000     -19.121172      -520.3135 
   2   2.0000     -14.369961      -391.0265 
   3   2.0000     -14.312084      -389.4516 
   4   2.0000     -10.301933      -280.3298 
   5   2.0000     -10.217819      -278.0410 
   6   2.0000     -10.208469      -277.7866 
   7   2.0000     -10.206193      -277.7246 
   8   2.0000     -10.185952      -277.1738 
   9   2.0000     -10.176342      -276.9123 
  10   2.0000     -10.171418      -276.7783 
  11   2.0000     -10.170849      -276.7629 
  12   2.0000     -10.169540      -276.7273 
  13   2.0000     -10.168916      -276.7103 
  14   2.0000     -10.165874      -276.6275 
  15   2.0000      -1.092770       -29.7358 
  16   2.0000      -0.997134       -27.1334 
  17   2.0000      -0.971265       -26.4295 
  18   2.0000      -0.889910       -24.2157 
  19   2.0000      -0.827435       -22.5157 
  20   2.0000      -0.793926       -21.6038 
  21   2.0000      -0.739676       -20.1276 
  22   2.0000      -0.724191       -19.7062 
  23   2.0000      -0.706260       -19.2183 
  24   2.0000      -0.667088       -18.1524 
  25   2.0000      -0.613406       -16.6916 
  26   2.0000      -0.588206       -16.0059 
  27   2.0000      -0.578305       -15.7365 
  28   2.0000      -0.547190       -14.8898 
  29   2.0000      -0.528906       -14.3923 
  30   2.0000      -0.502713       -13.6795 
  31   2.0000      -0.480600       -13.0778 
  32   2.0000      -0.472020       -12.8443 
  33   2.0000      -0.463964       -12.6251 
  34   2.0000      -0.457220       -12.4416 
  35   2.0000      -0.449867       -12.2415 
  36   2.0000      -0.426210       -11.5978 
  37   2.0000      -0.421438       -11.4679 
  38   2.0000      -0.417363       -11.3570 
  39   2.0000      -0.410083       -11.1589 
  40   2.0000      -0.403404       -10.9772 
  41   2.0000      -0.382114       -10.3979 
  42   2.0000      -0.373561       -10.1651 
  43   2.0000      -0.362340        -9.8598 
  44   2.0000      -0.360365        -9.8060 
  45   2.0000      -0.340294        -9.2599 
  46   2.0000      -0.323808        -8.8113 
  47   2.0000      -0.323312        -8.7978 
  48   2.0000      -0.303465        -8.2577 
  49   2.0000      -0.263459        -7.1691 
  50   2.0000      -0.258691        -7.0393 
  51   2.0000      -0.241028        -6.5587 
  52   2.0000      -0.213399        -5.8069 
  53   2.0000      -0.194189        -5.2842 
  54   0.0000      -0.002686        -0.0731 
  55   0.0000       0.013979         0.3804 
  56   0.0000       0.035047         0.9537 
  57   0.0000       0.066742         1.8161 
  58   0.0000       0.080903         2.2015 
  59   0.0000       0.084508         2.2996 
  60   0.0000       0.090961         2.4752 
  61   0.0000       0.113637         3.0922 
  62   0.0000       0.131189         3.5698 
  63   0.0000       0.145409         3.9568 
  64   0.0000       0.150583         4.0976 
  65   0.0000       0.160134         4.3575 
  66   0.0000       0.167839         4.5671 
  67   0.0000       0.184201         5.0124 
  68   0.0000       0.187422         5.1000 
  69   0.0000       0.188863         5.1392 
  70   0.0000       0.206358         5.6153 
  71   0.0000       0.221841         6.0366 
  72   0.0000       0.246247         6.7007 
  73   0.0000       0.255794         6.9605 
  74   0.0000       0.262889         7.1536 
  75   0.0000       0.266959         7.2643 
  76   0.0000       0.281561         7.6617 
  77   0.0000       0.289229         7.8703 
  78   0.0000       0.326899         8.8954 
  79   0.0000       0.338175         9.2022 
  80   0.0000       0.350003         9.5241 
  81   0.0000       0.360333         9.8052 
  82   0.0000       0.386022        10.5042 
  83   0.0000       0.403586        10.9821 
  84   0.0000       0.444316        12.0905 
  85   0.0000       0.498110        13.5543 
  86   0.0000       0.513915        13.9843 
  87   0.0000       0.519142        14.1266 
  88   0.0000       0.531529        14.4636 
  89   0.0000       0.539356        14.6766 
  90   0.0000       0.552977        15.0473 
  91   0.0000       0.561205        15.2712 
  92   0.0000       0.568041        15.4572 
  93   0.0000       0.572084        15.5672 
  94   0.0000       0.590845        16.0777 
  95   0.0000       0.602755        16.4018 
  96   0.0000       0.604313        16.4442 
  97   0.0000       0.611978        16.6528 
  98   0.0000       0.623211        16.9584 
  99   0.0000       0.630351        17.1527 
 100   0.0000       0.636719        17.3260 
 101   0.0000       0.637973        17.3601 
 102   0.0000       0.644193        17.5294 
 103   0.0000       0.651342        17.7239 
 104   0.0000       0.664313        18.0769 
 105   0.0000       0.680613        18.5204 
 106   0.0000       0.686134        18.6706 
 107   0.0000       0.702495        19.1159 
 108   0.0000       0.731301        19.8997 
 109   0.0000       0.741499        20.1772 
 110   0.0000       0.748646        20.3717 
 111   0.0000       0.778102        21.1732 
 112   0.0000       0.788512        21.4565 
 113   0.0000       0.794124        21.6092 
 114   0.0000       0.800206        21.7747 
 115   0.0000       0.812635        22.1129 
 116   0.0000       0.819303        22.2944 
 117   0.0000       0.824910        22.4469 
 118   0.0000       0.833132        22.6707 
 119   0.0000       0.840015        22.8580 
 120   0.0000       0.846228        23.0270 
 121   0.0000       0.867052        23.5937 
 122   0.0000       0.875327        23.8188 
 123   0.0000       0.886025        24.1100 
 124   0.0000       0.891171        24.2500 
 125   0.0000       0.910857        24.7857 
 126   0.0000       0.915008        24.8986 
 127   0.0000       0.935623        25.4596 
 128   0.0000       0.943976        25.6869 
 129   0.0000       0.956177        26.0189 
 130   0.0000       0.961821        26.1725 
 131   0.0000       0.980127        26.6706 
 132   0.0000       0.987092        26.8601 
 133   0.0000       0.993349        27.0304 
 134   0.0000       1.019505        27.7422 
 135   0.0000       1.041382        28.3374 
 136   0.0000       1.054589        28.6968 
 137   0.0000       1.083582        29.4858 
 138   0.0000       1.098131        29.8817 
 139   0.0000       1.102843        30.0099 
 140   0.0000       1.113688        30.3050 
 141   0.0000       1.133954        30.8565 
 142   0.0000       1.139329        31.0027 
 143   0.0000       1.171951        31.8904 
 144   0.0000       1.178420        32.0664 
 145   0.0000       1.213945        33.0331 
 146   0.0000       1.249406        33.9981 
 147   0.0000       1.252922        34.0937 
 148   0.0000       1.307633        35.5825 
 149   0.0000       1.331633        36.2356 
 150   0.0000       1.337299        36.3898 
 151   0.0000       1.346319        36.6352 
 152   0.0000       1.368732        37.2451 
 153   0.0000       1.380330        37.5607 
 154   0.0000       1.390776        37.8449 
 155   0.0000       1.396217        37.9930 
 156   0.0000       1.414395        38.4876 
 157   0.0000       1.426088        38.8058 
 158   0.0000       1.441531        39.2260 
 159   0.0000       1.443543        39.2808 
 160   0.0000       1.467413        39.9303 
 161   0.0000       1.474990        40.1365 
 162   0.0000       1.503944        40.9244 
 163   0.0000       1.526432        41.5363 
 164   0.0000       1.583310        43.0841 
 165   0.0000       1.601841        43.5883 
 166   0.0000       1.617862        44.0243 
 167   0.0000       1.643587        44.7243 
 168   0.0000       1.696268        46.1578 
 169   0.0000       1.722818        46.8803 
 170   0.0000       1.734640        47.2020 
 171   0.0000       1.761940        47.9448 
 172   0.0000       1.776326        48.3363 
 173   0.0000       1.791188        48.7407 
 174   0.0000       1.805313        49.1251 
 175   0.0000       1.809164        49.2299 
 176   0.0000       1.830948        49.8226 
 177   0.0000       1.848924        50.3118 
 178   0.0000       1.860954        50.6391 
 179   0.0000       1.872559        50.9549 
 180   0.0000       1.887117        51.3511 
 181   0.0000       1.899626        51.6914 
 182   0.0000       1.909839        51.9694 
 183   0.0000       1.919938        52.2442 
 184   0.0000       1.927947        52.4621 
 185   0.0000       1.932077        52.5745 
 186   0.0000       1.960155        53.3385 
 187   0.0000       1.976181        53.7746 
 188   0.0000       1.990818        54.1729 
 189   0.0000       1.993423        54.2438 
 190   0.0000       2.006610        54.6026 
 191   0.0000       2.019805        54.9617 
 192   0.0000       2.026183        55.1352 
 193   0.0000       2.053867        55.8886 
 194   0.0000       2.062043        56.1110 
 195   0.0000       2.083996        56.7084 
 196   0.0000       2.112520        57.4846 
 197   0.0000       2.129757        57.9536 
 198   0.0000       2.137120        58.1540 
 199   0.0000       2.158581        58.7380 
 200   0.0000       2.181619        59.3649 
 201   0.0000       2.210510        60.1510 
 202   0.0000       2.226067        60.5744 
 203   0.0000       2.236311        60.8531 
 204   0.0000       2.256511        61.4028 
 205   0.0000       2.277536        61.9749 
 206   0.0000       2.291836        62.3640 
 207   0.0000       2.296320        62.4860 
 208   0.0000       2.314119        62.9704 
 209   0.0000       2.326468        63.3064 
 210   0.0000       2.340493        63.6881 
 211   0.0000       2.358390        64.1751 
 212   0.0000       2.374236        64.6063 
 213   0.0000       2.392199        65.0950 
 214   0.0000       2.402509        65.3756 
 215   0.0000       2.403026        65.3897 
 216   0.0000       2.419761        65.8450 
 217   0.0000       2.430690        66.1424 
 218   0.0000       2.443230        66.4837 
 219   0.0000       2.458445        66.8977 
 220   0.0000       2.486896        67.6719 
 221   0.0000       2.491830        67.8061 
 222   0.0000       2.510620        68.3174 
 223   0.0000       2.529298        68.8257 
 224   0.0000       2.549526        69.3761 
 225   0.0000       2.551358        69.4260 
 226   0.0000       2.561255        69.6953 
 227   0.0000       2.573511        70.0288 
 228   0.0000       2.588608        70.4396 
 229   0.0000       2.600140        70.7534 
 230   0.0000       2.612634        71.0934 
 231   0.0000       2.626320        71.4658 
 232   0.0000       2.641566        71.8807 
 233   0.0000       2.669785        72.6486 
 234   0.0000       2.695761        73.3554 
 235   0.0000       2.709594        73.7318 
 236   0.0000       2.729530        74.2743 
 237   0.0000       2.731769        74.3352 
 238   0.0000       2.735783        74.4444 
 239   0.0000       2.755266        74.9746 
 240   0.0000       2.782627        75.7191 
 241   0.0000       2.789809        75.9146 
 242   0.0000       2.803291        76.2814 
 243   0.0000       2.835418        77.1556 
 244   0.0000       2.849277        77.5328 
 245   0.0000       2.883455        78.4628 
 246   0.0000       2.905612        79.0657 
 247   0.0000       2.921105        79.4873 
 248   0.0000       2.941351        80.0382 
 249   0.0000       2.975648        80.9715 
 250   0.0000       3.009203        81.8846 
 251   0.0000       3.028161        82.4004 
 252   0.0000       3.094972        84.2185 
 253   0.0000       3.100025        84.3560 
 254   0.0000       3.173496        86.3552 
 255   0.0000       3.186468        86.7082 
 256   0.0000       3.226838        87.8067 
 257   0.0000       3.258308        88.6631 
 258   0.0000       3.300850        89.8207 
 259   0.0000       3.304188        89.9115 
 260   0.0000       3.330800        90.6357 
 261   0.0000       3.379438        91.9592 
 262   0.0000       3.401393        92.5566 
 263   0.0000       3.449439        93.8640 
 264   0.0000       3.469298        94.4044 
 265   0.0000       3.504011        95.3490 
 266   0.0000       3.515435        95.6599 
 267   0.0000       3.545778        96.4855 
 268   0.0000       3.768275       102.5400 
 269   0.0000       3.891179       105.8844 

                    ********************************
                    * MULLIKEN POPULATION ANALYSIS *
                    ********************************

-----------------------
MULLIKEN ATOMIC CHARGES
-----------------------
   0 O :   -0.467432
   1 O :   -0.432483
   2 N :   -0.552993
   3 N :   -0.553048
   4 C :    0.040233
   5 C :   -0.242969
   6 C :    0.061105
   7 C :    0.001897
   8 C :    0.247135
   9 C :    0.033823
  10 C :   -0.158228
  11 C :   -0.101900
  12 C :    0.531938
  13 C :   -0.102820
  14 C :   -0.104946
  15 H :    0.134069
  16 H :    0.093885
  17 H :    0.092424
  18 H :    0.098034
  19 H :    0.259173
  20 H :    0.103837
  21 H :    0.073096
  22 H :    0.077263
  23 H :    0.236746
  24 H :    0.231556
  25 H :    0.075978
  26 H :    0.324626
Sum of atomic charges:    0.0000000

--------------------------------
MULLIKEN REDUCED ORBITAL CHARGES
--------------------------------
  0 O s       :     3.824054  s :     3.824054
      pz      :     1.488298  p :     4.620000
      px      :     1.632164
      py      :     1.499538
      dz2     :     0.007182  d :     0.023378
      dxz     :     0.004622
      dyz     :     0.003548
      dx2y2   :     0.005184
      dxy     :     0.002842

  1 O s       :     3.863262  s :     3.863262
      pz      :     1.589205  p :     4.541475
      px      :     1.497752
      py      :     1.454518
      dz2     :     0.004650  d :     0.027746
      dxz     :     0.002415
      dyz     :     0.007707
      dx2y2   :     0.005568
      dxy     :     0.007406

  2 N s       :     3.595036  s :     3.595036
      pz      :     1.526301  p :     3.922028
      px      :     1.196174
      py      :     1.199553
      dz2     :     0.003019  d :     0.035929
      dxz     :     0.006732
      dyz     :     0.006846
      dx2y2   :     0.008918
      dxy     :     0.010413

  3 N s       :     3.630129  s :     3.630129
      pz      :     1.448983  p :     3.892045
      px      :     1.071071
      py      :     1.371991
      dz2     :     0.004649  d :     0.030874
      dxz     :     0.011649
      dyz     :     0.002082
      dx2y2   :     0.008983
      dxy     :     0.003511

  4 C s       :     3.125861  s :     3.125861
      pz      :     0.999954  p :     2.793275
      px      :     0.880860
      py      :     0.912461
      dz2     :     0.004926  d :     0.040631
      dxz     :     0.006196
      dyz     :     0.006961
      dx2y2   :     0.009788
      dxy     :     0.012760

  5 C s       :     3.237314  s :     3.237314
      pz      :     0.988001  p :     2.967177
      px      :     0.944735
      py      :     1.034441
      dz2     :     0.005328  d :     0.038478
      dxz     :     0.009201
      dyz     :     0.009131
      dx2y2   :     0.009008
      dxy     :     0.005811

  6 C s       :     3.139262  s :     3.139262
      pz      :     0.994169  p :     2.758007
      px      :     0.895723
      py      :     0.868115
      dz2     :     0.004538  d :     0.041626
      dxz     :     0.006421
      dyz     :     0.007624
      dx2y2   :     0.010430
      dxy     :     0.012613

  7 C s       :     3.175353  s :     3.175353
      pz      :     0.960950  p :     2.765612
      px      :     0.843956
      py      :     0.960707
      dz2     :     0.008458  d :     0.057138
      dxz     :     0.013135
      dyz     :     0.012803
      dx2y2   :     0.013563
      dxy     :     0.009179

  8 C s       :     3.063030  s :     3.063030
      pz      :     0.986196  p :     2.632222
      px      :     0.901353
      py      :     0.744673
      dz2     :     0.006528  d :     0.057614
      dxz     :     0.007854
      dyz     :     0.011213
      dx2y2   :     0.017662
      dxy     :     0.014357

  9 C s       :     3.095114  s :     3.095114
      pz      :     1.030130  p :     2.820198
      px      :     0.799634
      py      :     0.990435
      dz2     :     0.007759  d :     0.050866
      dxz     :     0.009694
      dyz     :     0.004927
      dx2y2   :     0.016608
      dxy     :     0.011877

 10 C s       :     3.180246  s :     3.180246
      pz      :     0.999004  p :     2.942738
      px      :     0.955977
      py      :     0.987757
      dz2     :     0.002806  d :     0.035244
      dxz     :     0.005362
      dyz     :     0.006366
      dx2y2   :     0.010675
      dxy     :     0.010035

 11 C s       :     3.142438  s :     3.142438
      pz      :     1.024331  p :     2.924897
      px      :     0.945443
      py      :     0.955122
      dz2     :     0.002960  d :     0.034565
      dxz     :     0.005106
      dyz     :     0.006383
      dx2y2   :     0.008845
      dxy     :     0.011271

 12 C s       :     2.987730  s :     2.987730
      pz      :     0.718536  p :     2.357950
      px      :     0.756646
      py      :     0.882767
      dz2     :     0.033316  d :     0.122382
      dxz     :     0.020269
      dyz     :     0.027357
      dx2y2   :     0.022349
      dxy     :     0.019092

 13 C s       :     3.178312  s :     3.178312
      pz      :     1.005051  p :     2.890016
      px      :     0.929195
      py      :     0.955771
      dz2     :     0.003794  d :     0.034491
      dxz     :     0.006392
      dyz     :     0.003886
      dx2y2   :     0.011482
      dxy     :     0.008937

 14 C s       :     3.183758  s :     3.183758
      pz      :     0.992364  p :     2.886306
      px      :     0.950085
      py      :     0.943856
      dz2     :     0.004736  d :     0.034882
      dxz     :     0.003817
      dyz     :     0.005983
      dx2y2   :     0.009175
      dxy     :     0.011172

 15 H s       :     0.854586  s :     0.854586
      pz      :     0.005127  p :     0.011345
      px      :     0.002030
      py      :     0.004188

 16 H s       :     0.894517  s :     0.894517
      pz      :     0.003023  p :     0.011598
      px      :     0.002711
      py      :     0.005864

 17 H s       :     0.896718  s :     0.896718
      pz      :     0.005301  p :     0.010859
      px      :     0.001677
      py      :     0.003880

 18 H s       :     0.889373  s :     0.889373
      pz      :     0.003031  p :     0.012593
      px      :     0.002820
      py      :     0.006742

 19 H s       :     0.715913  s :     0.715913
      pz      :     0.008825  p :     0.024914
      px      :     0.007757
      py      :     0.008332

 20 H s       :     0.883711  s :     0.883711
      pz      :     0.003610  p :     0.012452
      px      :     0.005736
      py      :     0.003105

 21 H s       :     0.914484  s :     0.914484
      pz      :     0.003845  p :     0.012420
      px      :     0.005675
      py      :     0.002901

 22 H s       :     0.910395  s :     0.910395
      pz      :     0.003159  p :     0.012342
      px      :     0.002036
      py      :     0.007148

 23 H s       :     0.739501  s :     0.739501
      pz      :     0.008770  p :     0.023753
      px      :     0.008140
      py      :     0.006843

 24 H s       :     0.744598  s :     0.744598
      pz      :     0.007832  p :     0.023846
      px      :     0.004741
      py      :     0.011274

 25 H s       :     0.911664  s :     0.911664
      pz      :     0.002798  p :     0.012358
      px      :     0.005933
      py      :     0.003627

 26 H s       :     0.637864  s :     0.637864
      pz      :     0.007815  p :     0.037510
      px      :     0.009668
      py      :     0.020027


------------------------
MULLIKEN OVERLAP CHARGES
------------------------
B(  0-O ,  1-O ) :  -0.1651 B(  0-O ,  7-C ) :  -0.1625 B(  0-O , 12-C ) :   0.5675 
B(  0-O , 26-H ) :   0.5484 B(  1-O ,  7-C ) :  -0.1668 B(  1-O , 12-C ) :   1.2305 
B(  2-N ,  4-C ) :  -0.1051 B(  2-N ,  6-C ) :  -0.1097 B(  2-N ,  8-C ) :   0.6005 
B(  2-N ,  9-C ) :   0.6660 B(  2-N , 11-C ) :  -0.1734 B(  2-N , 18-H ) :  -0.0916 
B(  2-N , 19-H ) :   0.7090 B(  3-N ,  5-C ) :  -0.0861 B(  3-N ,  7-C ) :   0.5902 
B(  3-N , 12-C ) :  -0.0884 B(  3-N , 17-H ) :  -0.0931 B(  3-N , 23-H ) :   0.6650 
B(  3-N , 24-H ) :   0.6617 B(  4-C ,  5-C ) :   0.6573 B(  4-C ,  6-C ) :   0.8181 
B(  4-C ,  7-C ) :  -0.0730 B(  4-C ,  9-C ) :   0.9830 B(  4-C , 10-C ) :  -0.2097 
B(  4-C , 16-H ) :  -0.0530 B(  4-C , 18-H ) :  -0.0597 B(  5-C ,  6-C ) :  -0.1094 
B(  5-C ,  7-C ) :   0.6550 B(  5-C ,  9-C ) :  -0.1739 B(  5-C , 15-H ) :   0.7232 
B(  5-C , 16-H ) :   0.7379 B(  5-C , 17-H ) :  -0.0992 B(  6-C ,  8-C ) :   0.9089 
B(  6-C , 10-C ) :   0.9824 B(  6-C , 11-C ) :  -0.0964 B(  6-C , 14-C ) :  -0.0718 
B(  6-C , 20-H ) :  -0.0734 B(  7-C , 12-C ) :   0.5473 B(  7-C , 15-H ) :  -0.0811 
B(  7-C , 16-H ) :  -0.0806 B(  7-C , 17-H ) :   0.7440 B(  7-C , 23-H ) :  -0.0669 
B(  7-C , 24-H ) :  -0.0674 B(  8-C ,  9-C ) :  -0.2700 B(  8-C , 10-C ) :  -0.1193 
B(  8-C , 11-C ) :   0.9696 B(  8-C , 13-C ) :  -0.0848 B(  8-C , 19-H ) :  -0.0581 
B(  8-C , 21-H ) :  -0.0755 B(  9-C , 18-H ) :   0.7428 B(  9-C , 19-H ) :  -0.0639 
B( 10-C , 11-C ) :  -0.1119 B( 10-C , 13-C ) :   1.0224 B( 10-C , 14-C ) :  -0.0528 
B( 10-C , 20-H ) :   0.7156 B( 10-C , 22-H ) :  -0.0715 B( 11-C , 13-C ) :  -0.0578 
B( 11-C , 14-C ) :   1.0724 B( 11-C , 21-H ) :   0.7095 B( 11-C , 25-H ) :  -0.0772 
B( 12-C , 17-H ) :  -0.1120 B( 13-C , 14-C ) :   1.0494 B( 13-C , 20-H ) :  -0.0796 
B( 13-C , 22-H ) :   0.7311 B( 13-C , 25-H ) :  -0.0781 B( 14-C , 21-H ) :  -0.0765 
B( 14-C , 22-H ) :  -0.0805 B( 14-C , 25-H ) :   0.7300 B( 15-H , 16-H ) :  -0.0655 
B( 23-H , 24-H ) :  -0.0648 


                     *******************************
                     * LOEWDIN POPULATION ANALYSIS *
                     *******************************

----------------------
LOEWDIN ATOMIC CHARGES
----------------------
   0 O :   -0.147769
   1 O :   -0.234344
   2 N :   -0.033010
   3 N :   -0.255251
   4 C :   -0.073471
   5 C :   -0.105785
   6 C :   -0.036216
   7 C :   -0.038958
   8 C :    0.019529
   9 C :   -0.046918
  10 C :   -0.079497
  11 C :   -0.103331
  12 C :    0.142472
  13 C :   -0.093518
  14 C :   -0.080999
  15 H :    0.087226
  16 H :    0.072190
  17 H :    0.057601
  18 H :    0.071076
  19 H :    0.150403
  20 H :    0.079482
  21 H :    0.069194
  22 H :    0.070820
  23 H :    0.127684
  24 H :    0.123707
  25 H :    0.070474
  26 H :    0.187212

-------------------------------
LOEWDIN REDUCED ORBITAL CHARGES
-------------------------------
  0 O s       :     3.475563  s :     3.475563
      pz      :     1.504591  p :     4.622767
      px      :     1.618654
      py      :     1.499521
      dz2     :     0.014658  d :     0.049440
      dxz     :     0.012320
      dyz     :     0.008055
      dx2y2   :     0.008882
      dxy     :     0.005524

  1 O s       :     3.562494  s :     3.562494
      pz      :     1.601188  p :     4.616477
      px      :     1.486798
      py      :     1.528491
      dz2     :     0.008042  d :     0.055373
      dxz     :     0.004071
      dyz     :     0.017906
      dx2y2   :     0.014042
      dxy     :     0.011312

  2 N s       :     3.064678  s :     3.064678
      pz      :     1.478057  p :     3.880625
      px      :     1.207778
      py      :     1.194790
      dz2     :     0.005497  d :     0.087708
      dxz     :     0.014813
      dyz     :     0.014835
      dx2y2   :     0.026545
      dxy     :     0.026018

  3 N s       :     3.218383  s :     3.218383
      pz      :     1.466888  p :     3.978001
      px      :     1.124606
      py      :     1.386507
      dz2     :     0.006736  d :     0.058867
      dxz     :     0.022345
      dyz     :     0.004044
      dx2y2   :     0.018010
      dxy     :     0.007731

  4 C s       :     2.866623  s :     2.866623
      pz      :     1.048158  p :     3.106177
      px      :     1.017123
      py      :     1.040896
      dz2     :     0.010067  d :     0.100670
      dxz     :     0.013244
      dyz     :     0.017079
      dx2y2   :     0.026667
      dxy     :     0.033613

  5 C s       :     2.889217  s :     2.889217
      pz      :     1.045401  p :     3.132428
      px      :     1.014586
      py      :     1.072441
      dz2     :     0.010697  d :     0.084140
      dxz     :     0.022439
      dyz     :     0.018443
      dx2y2   :     0.020067
      dxy     :     0.012493

  6 C s       :     2.861754  s :     2.861754
      pz      :     1.015667  p :     3.070160
      px      :     1.016304
      py      :     1.038189
      dz2     :     0.009504  d :     0.104301
      dxz     :     0.015014
      dyz     :     0.016969
      dx2y2   :     0.027971
      dxy     :     0.034843

  7 C s       :     2.883967  s :     2.883967
      pz      :     1.040406  p :     3.027800
      px      :     0.952201
      py      :     1.035193
      dz2     :     0.017287  d :     0.127191
      dxz     :     0.030354
      dyz     :     0.028629
      dx2y2   :     0.031064
      dxy     :     0.019857

  8 C s       :     2.844966  s :     2.844966
      pz      :     1.004962  p :     2.996614
      px      :     1.056899
      py      :     0.934753
      dz2     :     0.014217  d :     0.138892
      dxz     :     0.017521
      dyz     :     0.025382
      dx2y2   :     0.044631
      dxy     :     0.037141

  9 C s       :     2.887111  s :     2.887111
      pz      :     1.039960  p :     3.043816
      px      :     0.940115
      py      :     1.063742
      dz2     :     0.016091  d :     0.115991
      dxz     :     0.022675
      dyz     :     0.010358
      dx2y2   :     0.039045
      dxy     :     0.027822

 10 C s       :     2.895188  s :     2.895188
      pz      :     0.999623  p :     3.100358
      px      :     1.055665
      py      :     1.045070
      dz2     :     0.005923  d :     0.083952
      dxz     :     0.010790
      dyz     :     0.013987
      dx2y2   :     0.026882
      dxy     :     0.026369

 11 C s       :     2.890451  s :     2.890451
      pz      :     1.034873  p :     3.128921
      px      :     1.036763
      py      :     1.057285
      dz2     :     0.006214  d :     0.083960
      dxz     :     0.010413
      dyz     :     0.014498
      dx2y2   :     0.024226
      dxy     :     0.028608

 12 C s       :     2.855052  s :     2.855052
      pz      :     0.869405  p :     2.716503
      px      :     0.806408
      py      :     1.040690
      dz2     :     0.077517  d :     0.285973
      dxz     :     0.048407
      dyz     :     0.064806
      dx2y2   :     0.053412
      dxy     :     0.041830

 13 C s       :     2.896312  s :     2.896312
      pz      :     1.017443  p :     3.113948
      px      :     1.050312
      py      :     1.046192
      dz2     :     0.007816  d :     0.083257
      dxz     :     0.015489
      dyz     :     0.007749
      dx2y2   :     0.028389
      dxy     :     0.023815

 14 C s       :     2.896909  s :     2.896909
      pz      :     1.007809  p :     3.100418
      px      :     1.045249
      py      :     1.047361
      dz2     :     0.009530  d :     0.083672
      dxz     :     0.008558
      dyz     :     0.014447
      dx2y2   :     0.023908
      dxy     :     0.027229

 15 H s       :     0.873063  s :     0.873063
      pz      :     0.019088  p :     0.039711
      px      :     0.006245
      py      :     0.014378

 16 H s       :     0.889324  s :     0.889324
      pz      :     0.009199  p :     0.038486
      px      :     0.008477
      py      :     0.020810

 17 H s       :     0.902082  s :     0.902082
      pz      :     0.019642  p :     0.040317
      px      :     0.006193
      py      :     0.014482

 18 H s       :     0.886723  s :     0.886723
      pz      :     0.009040  p :     0.042202
      px      :     0.009561
      py      :     0.023600

 19 H s       :     0.768758  s :     0.768758
      pz      :     0.026845  p :     0.080839
      px      :     0.025709
      py      :     0.028285

 20 H s       :     0.878980  s :     0.878980
      pz      :     0.011482  p :     0.041538
      px      :     0.019707
      py      :     0.010349

 21 H s       :     0.890357  s :     0.890357
      pz      :     0.011786  p :     0.040449
      px      :     0.019004
      py      :     0.009659

 22 H s       :     0.889270  s :     0.889270
      pz      :     0.009492  p :     0.039910
      px      :     0.006028
      py      :     0.024391

 23 H s       :     0.795527  s :     0.795527
      pz      :     0.031386  p :     0.076789
      px      :     0.026784
      py      :     0.018619

 24 H s       :     0.799042  s :     0.799042
      pz      :     0.022652  p :     0.077251
      px      :     0.012921
      py      :     0.041678

 25 H s       :     0.889737  s :     0.889737
      pz      :     0.008139  p :     0.039790
      px      :     0.020071
      py      :     0.011580

 26 H s       :     0.698970  s :     0.698970
      pz      :     0.022355  p :     0.113818
      px      :     0.027926
      py      :     0.063536


---------------------------------
LOEWDIN BOND ORDERS (THRESH 0.050000)
---------------------------------
B(  0-O ,  1-O ) :   0.2065 B(  0-O ,  7-C ) :   0.0656 B(  0-O , 12-C ) :   1.3959 
B(  0-O , 26-H ) :   0.9847 B(  1-O ,  7-C ) :   0.0851 B(  1-O , 12-C ) :   2.2096 
B(  2-N ,  4-C ) :   0.1476 B(  2-N ,  6-C ) :   0.1051 B(  2-N ,  8-C ) :   1.2629 
B(  2-N ,  9-C ) :   1.2853 B(  2-N , 11-C ) :   0.0724 B(  2-N , 19-H ) :   0.9438 
B(  3-N ,  5-C ) :   0.0528 B(  3-N ,  7-C ) :   1.1426 B(  3-N , 12-C ) :   0.0553 
B(  3-N , 23-H ) :   0.9863 B(  3-N , 24-H ) :   0.9854 B(  4-C ,  5-C ) :   1.0541 
B(  4-C ,  6-C ) :   1.2047 B(  4-C ,  8-C ) :   0.0829 B(  4-C ,  9-C ) :   1.5919 
B(  4-C , 10-C ) :   0.0577 B(  5-C ,  7-C ) :   0.9920 B(  5-C ,  9-C ) :   0.0633 
B(  5-C , 12-C ) :   0.0528 B(  5-C , 15-H ) :   0.9209 B(  5-C , 16-H ) :   0.9210 
B(  6-C ,  8-C ) :   1.2473 B(  6-C ,  9-C ) :   0.0908 B(  6-C , 10-C ) :   1.3616 
B(  6-C , 11-C ) :   0.0644 B(  6-C , 13-C ) :   0.0774 B(  6-C , 14-C ) :   0.0798 
B(  7-C , 12-C ) :   0.9829 B(  7-C , 17-H ) :   0.9037 B(  8-C ,  9-C ) :   0.1224 
B(  8-C , 10-C ) :   0.0670 B(  8-C , 11-C ) :   1.3796 B(  8-C , 13-C ) :   0.0780 
B(  8-C , 14-C ) :   0.0819 B(  9-C , 18-H ) :   0.9341 B( 10-C , 11-C ) :   0.1109 
B( 10-C , 13-C ) :   1.5400 B( 10-C , 14-C ) :   0.0702 B( 10-C , 20-H ) :   0.9186 
B( 11-C , 13-C ) :   0.0706 B( 11-C , 14-C ) :   1.5265 B( 11-C , 21-H ) :   0.9239 
B( 12-C , 26-H ) :   0.0568 B( 13-C , 14-C ) :   1.4148 B( 13-C , 22-H ) :   0.9271 
B( 14-C , 25-H ) :   0.9273 

------------------------------------------
LOEWDIN REDUCED ORBITAL POPULATIONS PER MO
-------------------------------------------
THRESHOLD FOR PRINTING IS 0.1%%
                      0         1         2         3         4         5   
                 -19.18257 -19.12117 -14.36996 -14.31208 -10.30193 -10.21782
                   2.00000   2.00000   2.00000   2.00000   2.00000   2.00000
                  --------  --------  --------  --------  --------  --------
 0 O  s              99.9       0.0       0.0       0.0       0.0       0.0
 0 O  pz              0.0       0.0       0.0       0.0       0.2       0.0
 1 O  s               0.0      99.8       0.0       0.0       0.1       0.0
 1 O  py              0.0       0.0       0.0       0.0       0.3       0.0
 2 N  s               0.0       0.0      99.6       0.0       0.0       0.0
 3 N  s               0.0       0.0       0.0      99.7       0.0       0.0
 3 N  px              0.0       0.0       0.0       0.0       0.0       0.1
 7 C  s               0.0       0.0       0.0       0.0       0.0      99.4
 7 C  py              0.0       0.0       0.0       0.0       0.1       0.0
 8 C  py              0.0       0.0       0.1       0.0       0.0       0.0
12 C  s               0.0       0.0       0.0       0.0      98.9       0.0
12 C  py              0.0       0.1       0.0       0.0       0.0       0.1

                      6         7         8         9        10        11   
                 -10.20847 -10.20619 -10.18595 -10.17634 -10.17142 -10.17085
                   2.00000   2.00000   2.00000   2.00000   2.00000   2.00000
                  --------  --------  --------  --------  --------  --------
 2 N  px              0.2       0.0       0.0       0.0       0.0       0.0
 2 N  py              0.0       0.2       0.0       0.0       0.0       0.0
 4 C  s               0.0       0.0       0.0       0.0       0.0      98.2
 4 C  px              0.0       0.0       0.1       0.0       0.0       0.0
 4 C  py              0.2       0.0       0.0       0.0       0.0       0.0
 5 C  s               0.0       0.0      99.5       0.0       0.0       0.0
 5 C  px              0.0       0.0       0.0       0.0       0.0       0.1
 6 C  s               0.0       0.0       0.0       0.0       0.0       1.1
 6 C  px              0.0       0.1       0.0       0.0       0.0       0.1
 8 C  s               0.0      99.2       0.0       0.0       0.0       0.0
 8 C  px              0.0       0.0       0.0       0.2       0.0       0.0
[...]
 15 H      0.8659     1.0000     0.1341     0.9534     0.9534    -0.0000
 16 H      0.9061     1.0000     0.0939     0.9562     0.9562    -0.0000
 17 H      0.9076     1.0000     0.0924     0.9518     0.9518     0.0000
 18 H      0.9020     1.0000     0.0980     0.9603     0.9603    -0.0000
 19 H      0.7408     1.0000     0.2592     0.9240     0.9240    -0.0000
 20 H      0.8962     1.0000     0.1038     0.9686     0.9686    -0.0000
 21 H      0.9269     1.0000     0.0731     0.9585     0.9585     0.0000
 22 H      0.9227     1.0000     0.0773     0.9604     0.9604    -0.0000
 23 H      0.7633     1.0000     0.2367     0.9199     0.9199    -0.0000
 24 H      0.7684     1.0000     0.2316     0.9233     0.9233     0.0000
 25 H      0.9240     1.0000     0.0760     0.9599     0.9599     0.0000
 26 H      0.6754     1.0000     0.3246     0.9134     0.9134    -0.0000

  Mayer bond orders larger than 0.100000
B(  0-O , 12-C ) :   1.0838 B(  0-O , 26-H ) :   0.8514 B(  1-O , 12-C ) :   1.9182 
B(  2-N ,  8-C ) :   1.0199 B(  2-N ,  9-C ) :   1.0822 B(  2-N , 19-H ) :   0.8983 
B(  3-N ,  7-C ) :   1.0034 B(  3-N , 23-H ) :   0.9099 B(  3-N , 24-H ) :   0.9079 
B(  4-C ,  5-C ) :   0.9969 B(  4-C ,  6-C ) :   1.2591 B(  4-C ,  9-C ) :   1.5641 
B(  5-C ,  7-C ) :   0.9617 B(  5-C , 15-H ) :   0.9332 B(  5-C , 16-H ) :   0.9430 
B(  6-C ,  8-C ) :   1.2888 B(  6-C , 10-C ) :   1.3546 B(  7-C , 12-C ) :   0.9180 
B(  7-C , 17-H ) :   0.9307 B(  8-C , 11-C ) :   1.3571 B(  9-C , 18-H ) :   0.9433 
B( 10-C , 13-C ) :   1.4766 B( 10-C , 20-H ) :   0.9266 B( 11-C , 14-C ) :   1.4782 
B( 11-C , 21-H ) :   0.9366 B( 13-C , 14-C ) :   1.3776 B( 13-C , 22-H ) :   0.9447 
B( 14-C , 25-H ) :   0.9439 

-------
TIMINGS
-------

Total SCF time: 0 days 0 hours 1 min 27 sec 

Total time                  ....      87.631 sec
Sum of individual times     ....      84.725 sec  ( 96.7%)

SCF preparation             ....       0.396 sec  (  0.5%)
Fock matrix formation       ....      83.543 sec  ( 95.3%)
  Startup                   ....       0.007 sec  (  0.0% of F)
  Split-RI-J                ....       8.838 sec  ( 10.6% of F)
  Chain of spheres X        ....      66.825 sec  ( 80.0% of F)
  XC integration            ....      10.631 sec  ( 12.7% of F)
    XC Preparation          ....       0.000 sec  (  0.0% of XC)
    Basis function eval.    ....       4.129 sec  ( 38.8% of XC)
    Density eval.           ....       2.618 sec  ( 24.6% of XC)
    XC-Functional eval.     ....       0.486 sec  (  4.6% of XC)
    XC-Potential eval.      ....       2.784 sec  ( 26.2% of XC)
Diagonalization             ....       0.000 sec  (  0.0%)
Density matrix formation    ....       0.052 sec  (  0.1%)
Total Energy calculation    ....       0.023 sec  (  0.0%)
Population analysis         ....       0.312 sec  (  0.4%)
Orbital Transformation      ....       0.041 sec  (  0.0%)
Orbital Orthonormalization  ....       0.000 sec  (  0.0%)
DIIS solution               ....       0.195 sec  (  0.2%)
  MO trafo                  ....       0.000 sec  (  0.0 % of DIIS)
  Orb grad                  ....       0.000 sec  (  0.0 % of DIIS)
  Energy W gradient         ....       0.000 sec  (  0.0 % of DIIS)
  DIIS error                ....       0.043 sec  ( 22.1 % of DIIS)
  DIIS work                 ....       0.126 sec  ( 64.6 % of DIIS)
  Form Q                    ....       0.000 sec  (  0.0 % of DIIS)
  Form QpQm                 ....       0.000 sec  (  0.0 % of DIIS)
  Exp/Cayley                ....       0.000 sec  (  0.0 % of DIIS)
  Orb update                ....       0.000 sec  (  0.0 % of DIIS)
  Wake-sleep                ....       0.005 sec  (  2.7 % of DIIS)
SOSCF solution              ....       0.163 sec  (  0.2%)
  MO trafo                  ....       0.059 sec  ( 36.1 % of SOSCF)
  Orb grad                  ....       0.005 sec  (  2.9 % of SOSCF)
  Rot update                ....       0.019 sec  ( 11.6 % of SOSCF)
  Step                      ....       0.073 sec  ( 44.9 % of SOSCF)
Finished LeanSCF after  87.7 sec

Maximum memory used throughout the entire LEANSCF-calculation: 33.4 MB


-------------------------------------------------------------------------------
                          DFT DISPERSION CORRECTION                            
                                                                               
                              DFTD3 V3.1  Rev 1                                
                          USING Becke-Johnson damping                          
-------------------------------------------------------------------------------
The B3LYP functional is recognized
Active option DFTDOPT                   ...         4   

molecular C6(AA) [au] = 7881.806647 


            DFT-D V3
 parameters
 s6 scaling factor         :     1.0000 
 a1 scaling factor         :     0.3981 
 s8 scaling factor         :     1.9889 
 a2 scaling factor         :     4.4211 
 ad hoc parameters k1-k3   :    16.0000     1.3333    -4.0000 

 Edisp/kcal,au: -34.687605849348  -0.055278212653 
 E6   /kcal   : -16.396174998 
 E8   /kcal   : -18.291430851 
 % E8         :  52.731891992 

-------------------------   ----------------
Dispersion correction           -0.055278213
-------------------------   ----------------


-------------------------   --------------------
FINAL SINGLE POINT ENERGY      -686.020279993078
-------------------------   --------------------



           ************************************************************
           *        Program running with 2 parallel MPI-processes     *
           *              working on a common directory               *
           ************************************************************
------------------------------------------------------------------------------
                            ORCA SCF RESPONSE CALCULATION
------------------------------------------------------------------------------

GBWName                                 ... /kaggle/working/Trp-2/Trp_InterFrag.gbw
Number of atoms                         ...     27
Number of basis functions               ...    270
Max core memory                         ...   3000 MB

Electric field perturbation             ... YES
Quadrupolar field perturbation          ...  NO
Magnetic field perturbation (no GIAO)   ...  NO
Magnetic field perturbation (with GIAO) ...  NO
Linear momentum (velocity) perturbation ...  NO
Spin-orbit coupling perturbation        ...  NO
Choice of electric origin               ... Center of mass
Position of electric origin             ...     0.209550    -0.032773     0.043109
Choice of magnetic origin               ... GIAO
Position of magnetic origin             ...     0.000000     0.000000     0.000000
Nuclear geometric perturbations         ...  NO (  81 perturbations)
Nucleus-orbit perturbations             ...  NO (   0 perturbations)
Spin-dipole/Fermi contact perturbations ...  NO (   0 perturbations)

Total number of real perturbations      ...      3
Total number of imaginary perturbations ...      0
Total number of triplet perturbations   ...      0
Total number of SOC perturbations       ...      0

Using XC Grid                  ... (/kaggle/working/Trp-2/Trp_InterFrag.grid_cpscf.tmp) 
Recalculating density on grid  ... (/kaggle/working/Trp-2/Trp_InterFrag.grho_cpscf0.tmp) done
Calculating the xc-kernel      ... (/kaggle/working/Trp-2/Trp_InterFrag.fxc_cpscf0.tmp) done

                                **********************
                                * REAL PERTURBATIONS *
                                **********************



-------------------
SHARK CP-SCF DRIVER
-------------------

Dimension of the orbital basis          ...    270
Dimension of the CPSCF-problem          ...  11664
Number of operators                     ...      1
Max. number of iterations               ...    128
Convergence Tolerance                   ... 1.0e-04
Number of perturbations                 ...      3
Perturbation type                       ... REAL

----------------------------
POPLE LINEAR EQUATION SOLVER
----------------------------

  ITERATION   0:   ||err||_max =   2.7692e+01 (   3.8 sec   0/  3 done)
  ITERATION   1:   ||err||_max =   1.3056e+00 (   3.4 sec   0/  3 done)
  ITERATION   2:   ||err||_max =   5.1638e-01 (   3.4 sec   0/  3 done)
  ITERATION   3:   ||err||_max =   1.3611e-01 (   3.4 sec   0/  3 done)
  ITERATION   4:   ||err||_max =   5.2072e-02 (   3.4 sec   0/  3 done)
  ITERATION   5:   ||err||_max =   1.6144e-02 (   3.4 sec   0/  3 done)
  ITERATION   6:   ||err||_max =   6.9599e-03 (   3.4 sec   0/  3 done)
  ITERATION   7:   ||err||_max =   2.3304e-03 (   3.4 sec   0/  3 done)
  ITERATION   8:   ||err||_max =   7.4748e-04 (   3.4 sec   0/  3 done)
  ITERATION   9:   ||err||_max =   2.4709e-04 (   3.4 sec   0/  3 done)
  ITERATION  10:   ||err||_max =   1.0249e-04 (   3.4 sec   2/  3 done)
  ITERATION  11:   ||err||_max =   2.8822e-05 (   2.6 sec   3/  3 done)

CP-SCF equations solved in  40.6 sec
Response densities calculated in   0.0 sec

Maximum memory used throughout the entire SCFRESP-calculation: 37.9 MB


           ************************************************************
           *        Program running with 2 parallel MPI-processes     *
           *              working on a common directory               *
           ************************************************************

------------------------------------------------------------------------------
                              ORCA PROPERTY CALCULATIONS
------------------------------------------------------------------------------

GBWName                                 ... /kaggle/working/Trp-2/Trp_InterFrag.gbw
Number of atoms                         ...     27
Number of basis functions               ...    270
Max core memory                         ...   3000 MB

Electric properties:
Dipole moment                           ... YES
Quadrupole moment                       ...  NO
Static polarizability (Dipole/Dipole)   ... YES
Static polarizability (Dipole/Quad.)    ...  NO
Static polarizability (Quad./Quad.)     ...  NO
Static polarizability (Velocity)        ...  NO
Static hyperpolarizability              ...  NO

Atomic electric properties:
Dipole moment                           ...  NO
Quadrupole moment                       ...  NO
Static polarizability                   ...  NO

Choice of electric origin               ... Center of mass
Position of electric origin             ...     0.209550    -0.032773     0.043109

General magnetic properties:
Magnetizability                         ...  NO

EPR properties:
g-Tensor (aka g-matrix)                 ...  NO
Zero-Field splitting spin-orbit         ...  NO
Zero-field splitting spin-spin          ...  NO
Hyperfine couplings                     ...  NO (   0 nuclei)
Quadrupole couplings                    ...  NO (   0 nuclei)
Contact density                         ...  NO (   0 nuclei)

NMR properties:
Chemical shifts                         ...  NO (   0 nuclei)
Spin-rotation constants                 ...  NO (   0 nuclei)
Spin-spin couplings                     ...  NO (   0 nuclei,    0 pairs)

Choice of magnetic origin               ... GIAO
Position of magnetic origin             ...     0.000000     0.000000     0.000000

Properties with geometric perturbations:
SCF Hessian                             ...  NO
IR spectrum                             ...  NO
VCD spectrum                            ...  NO
X-ray spectroscopy properties:
SCF XES/XAS/RIXS spectra                ...  NO

SCF SOC stabilization energy            ...  NO
Diagonal Born-Oppenheimer correction    ...  NO

-------------
DIPOLE MOMENT
-------------

Method             : SCF
Type of density    : Electron Density
Multiplicity       :   1
Irrep              :   0
Energy             :  -685.9650017804251547 Eh
Basis              : AO
                                X                 Y                 Z
Electronic contribution:     -2.324511681      -1.417173162       2.052805503
Nuclear contribution   :      1.955894749       2.976972219      -1.073245108
                        -----------------------------------------
Total Dipole Moment    :     -0.368616931       1.559799056       0.979560395
                        -----------------------------------------
Magnitude (a.u.)       :      1.878400944
Magnitude (Debye)      :      4.774515762



--------------------
Rotational spectrum 
--------------------
 
Rotational constants in cm-1:             0.035834             0.015075             0.012197 
Rotational constants in MHz :          1074.268443           451.946640           365.653312 

Dipole components along the rotational axes: 
x,y,z [a.u.] :    -0.401434    -1.546630     0.987510 
x,y,z [Debye]:    -1.020365    -3.931222     2.510050 

 

Dipole moment calculation done in   0.0 sec 


---------------------------------------------------
STATIC POLARIZABILITY TENSOR (Dipole/Dipole)
---------------------------------------------------

Method             : SCF
Type of density    : Electron Density
Type of derivative : Electric Field (Direction=X)
Multiplicity       :   1
Irrep              :   0
Basis              : AO

The raw cartesian tensor (atomic units):
     154.916560385        17.453556901       -21.154610967  
      17.453556901       146.545260222        13.674694244  
     -21.154610967        13.674694244        79.107605385  
diagonalized tensor: 
      69.465396114       141.540409090       169.563620788  

Orientation: 
       0.277663560        -0.497279828        -0.821958466  
      -0.228418381         0.796891276        -0.559275726  
       0.933128068         0.343040911         0.107679815  

Isotropic polarizability : 126.85648


Polarizability tensor calculation done in   0.0 sec 

Maximum memory used throughout the entire PROP-calculation: 17.4 MB

--------------------------------
SUGGESTED CITATIONS FOR THIS RUN
--------------------------------

Below you find a list of papers that are relevant to this ORCA run
We neither can nor want to force you to cite these papers, but we appreciate if you do
You receive ORCA, which is the product of decades of hard work by many enthusiastic individuals, for free
The only thing we kindly ask in return is that you cite our papers,
We deeply appreciate it, if you show your appreciation for ORCA by not just citing the generic ORCA reference.

Please note that relegating all ORCA citations to the supporting information does *not* help us.
SI sections are not indexed - citations you put there will not count into any citation statistics
But we need these citations in order to attract the funding resources that allow us to do what we are doing

Therefore, if you are a happy ORCA user, please consider citing a few of the papers listed below in the main body of your paper

In addition to the list printed below, the program has created the file /kaggle/working/Trp-2/Trp_InterFrag.bibtex that contains the list in bibtex format
You can import this file easily into all common literature databanks and citation aid programs

It goes without saying that in many instances, there are alternative algorithms to achieve similar
results as the ones you have gotten from ORCA. It is, of course, also the case that in some instances
ORCA just re-implements algorithms worked out by others. We are fully aware of that and we are also
fully appreciative of our colleagues work. Hence this citation list should not be read as indicating
that the listed papers, which are focused on our own work, are the only ones worth citing. It simply
meant to make it easier for users to cite ORCA specific papers. It is not a substitute for doing your
own literature research and citing the relevant literature in a scientifically appropriate manner.

List of essential papers. We consider these as the minimum necessary citations

  1. Neese, F.
     Software update: the ORCA program system, version 6.0
     WIRES Comput. Molec. Sci. 2025 15(1), e70019
     doi.org/10.1002/wcms.70019

List of papers to cite with high priority. The work reported in these papers was absolutely
necessary for this run to complete.
Our perspective: the developers of density functionals and basis sets usually get cited in chemistry papers
Good! But without the algorithms to do something with them, the functionals or basis sets would not do anything.
Hence, in our opinion, the algorithm design and method developments papers are equally worthy of getting cited

  1. Neese, F.
     An improvement of the resolution of the identity approximation for the formation of the Coulomb matrix
     J. Comp. Chem. 2003 24(14), 1740-1747
     doi.org/10.1002/jcc.10318
  2. Neese, F.; Wennmohs, F.; Hansen, A.; Becker, U.
     Efficient, approximate and parallel Hartree-Fock and hybrid DFT calculations. A 'chain-of-spheres' algorithm for the Hartree-Fock exchange
     Chem. Phys. 2009 356(1-3), 98-109
     doi.org/10.1016/j.chemphys.2008.10.036
  3. Grimme, S.; Antony, J.; Ehrlich, S.; Krieg, H.
     A consistent and accurate ab initio parametrization of density functional dispersion correction (DFT-D) for the 94 elements H-Pu
     J. Chem. Phys. 2010 132 , 154104
     doi.org/10.1063/1.3382344
  4. Grimme, S.; Ehrlich, S.; Goerigk, L.
     Effect of the damping function in dispersion corrected density functional theory
     J. Comput. Chem. 2011 32(7), 1456-1465
     doi.org/10.1002/jcc.21759
  5. Helmich-Paris, B.; de Souza, B.; Neese, F.; Izsák, R.
     An improved chain of spheres for exchange algorithm
     J. Chem. Phys. 2021 155(10), 104109
     doi.org/10.1063/5.0058766
  6. Neese, F.
     The SHARK Integral Generation and Digestion System
     J. Comp. Chem. 2022 44(3), 381
     doi.org/10.1002/jcc.26942

List of suggested additional citations. These are papers that are important in the 'surrounding' of 
of this run, or papers that preceded the highly important papers. If you like your results we are grateful for a citation.

  1. Izsak, R.; Neese, F.
     An overlap fitted chain of spheres exchange method
     J. Chem. Phys. 2011 135 , 144105
     doi.org/10.1063/1.3646921
  2. Izsak, R.; Hansen, A.; Neese, F.
     The resolution of identity and chain of spheres approximations for the LPNO-CCSD singles Fock term
     Molec. Phys. 2012 110 , 2413-2417
     doi.org/10.1080/00268976.2012.687466
  3. Neese, F.
     The ORCA program system
     WIRES Comput. Molec. Sci. 2012 2(1), 73-78
     doi.org/10.1002/wcms.81
  4. Izsak, R.; Neese, F.; Klopper, W.
     Robust fitting techniques in the chain of spheres approximation to the Fock exchange: The role of the complementary space
     J. Chem. Phys. 2013 139 , 
     doi.org/10.1063/1.4819264
  5. Neese, F.
     Software update: the ORCA program system, version 4.0
     WIRES Comput. Molec. Sci. 2018 8(1), 1-6
     doi.org/10.1002/wcms.1327
  6. Neese, F.; Wennmohs, F.; Becker, U.; Riplinger, C.
     The ORCA quantum chemistry program package
     J. Chem. Phys. 2020 152(22), 224108
     doi.org/10.1063/5.0004608
  7. Neese, F.
     Software update: The ORCA program system—Version 5.0
     WIRES Comput. Molec. Sci. 2022 12(1), e1606
     doi.org/10.1002/wcms.1606

List of optional additional citations

  1. Neese, F.
     Approximate second-order SCF convergence for spin unrestricted wavefunctions
     Chem. Phys. Lett. 2000 325(1-3), 93-98
     doi.org/10.1016/s0009-2614(00)00662-x

Timings for individual modules:

Sum of individual times          ...      134.488 sec (=   2.241 min)
Startup calculation              ...        3.502 sec (=   0.058 min)   2.6 %
SCF iterations                   ...       89.209 sec (=   1.487 min)  66.3 %
SCF Response                     ...       41.342 sec (=   0.689 min)  30.7 %
Property calculations            ...        0.434 sec (=   0.007 min)   0.3 %
                             ****ORCA TERMINATED NORMALLY****
TOTAL RUN TIME: 0 days 0 hours 2 minutes 14 seconds 991 msec
