
                                 *****************
                                 * O   R   C   A *
                                 *****************

                                            #,                                       
                                            ###                                      
                                            ####                                     
                                            #####                                    
                                            ######                                   
                                           ########,                                 
                                     ,,################,,,,,                         
                               ,,#################################,,                 
                          ,,##########################################,,             
                       ,#########################################, ''#####,          
                    ,#############################################,,   '####,        
                  ,##################################################,,,,####,       
                ,###########''''           ''''###############################       
              ,#####''   ,,,,##########,,,,          '''####'''          '####       
            ,##' ,,,,###########################,,,                        '##       
           ' ,,###''''                  '''############,,,                           
         ,,##''                                '''############,,,,        ,,,,,,###''
      ,#''                                            '''#######################'''  
     '                                                          ''''####''''         
             ,#######,   #######,   ,#######,      ##                                
            ,#'     '#,  ##    ##  ,#'     '#,    #''#        ,####,    ,#,          
            ##       ##  ##   ,#'  ##            #'  '#       #'       ,# #          
            ##       ##  #######   ##           ,######,      #####,      #          
            '#,     ,#'  ##    ##  '#,     ,#' ,#      #,     #,   #      #          
             '#######'   ##     ##  '#######'  #'      '#     '####' #    #          



                #########################################################
                #                        -***-                          #
                #          Department of theory and spectroscopy        #
                #                                                       #
                #                      Frank Neese                      #
                #                                                       #
                #     Directorship, Architecture, Infrastructure        #
                #                    SHARK, DRIVERS                     #
                #        Core code/Algorithms in most modules           #
                #                                                       #
                #        Max Planck Institute fuer Kohlenforschung      #
                #                Kaiser Wilhelm Platz 1                 #
                #                 D-45470 Muelheim/Ruhr                 #
                #                      Germany                          #
                #                                                       #
                #                  All rights reserved                  #
                #                        -***-                          #
                #########################################################


                         Program Version 6.1.1  -  RELEASE   -
                                (GIT: $487d211c$)
                          ($2025-11-21 10:33:24 +0100$)
                                                                         
                                  - NO-DMRG VERSION -                    
                                                                         


 With contributions from (in alphabetic order):
[Max-Planck-Institut fuer Kohlenforschung]                               
  Daniel Aravena         : Magnetic Suceptibility                        
  Michael Atanasov       : Ab Initio Ligand Field Theory (pilot matlab implementation)
  Alexander A. Auer      : GIAO ZORA, VPT2 properties, NMR spectrum      
  Ute Becker             : All parallelization in ORCA, NUMFREQ, NUMCALC 
  Giovanni Bistoni       : ED, misc. LED, open-shell LED, HFLD           
  Dmytro Bykov           : pre 5.0 version of the SCF Hessian            
  Marcos Casanova-Páez   : Triplet and SCS-CIS(D). UHF-(DLPNO)-IP/EA/STEOM-CCSD. UHF-CVS-IP/STEOM-CCSD   
  Vijay G. Chilkuri      : MRCI spin determinant printing, contributions to CSF-ICE 
  Pauline Colinet        : FMM embedding                                 
  Dipayan Datta          : RHF DLPNO-CCSD density                        
  Achintya Kumar Dutta   : EOM-CC, STEOM-CC                              
  Nicolas Foglia         : Exact transition moments, OPA infrastructure, MCD improvements    
  Dmitry Ganyushin       : Spin-Orbit,Spin-Spin,Magnetic field MRCI      
  Miquel Garcia-Rates    : C-PCM and meta-GGA Hessian, CCSD/C-PCM, Gaussian charge scheme 
  Tiago L. C. Gouveia    : GS-ROHF, GS-ROCIS                             
  Yang Guo               : DLPNO-NEVPT2, F12-NEVPT2, CIM, IAO-localization        
  Andreas Hansen         : Spin unrestricted coupled pair/coupled cluster methods 
  Ingolf Harden          : AUTO-CI MPn and infrastructure                
  Benjamin Helmich-Paris : MC-RPA, TRAH-(SCF,CASSCF), AVAS, COSX integrals, SCF dyn. polar., MC-PDFT, srDFT 
  Lee Huntington         : MR-EOM, pCC                                   
  Robert Izsak           : Overlap fitted RIJCOSX, COSX-SCS-MP3, EOM     
  Riya Kayal             : Wick's Theorem for AUTO-CI, AUTO-CI UHF-CCSDT 
  Emily Kempfer          : AUTO-CI RHF CISDT and CCSDT, approximate NEVPT4
  Christian Kollmar      : KDIIS, OOCD, Brueckner-CCSD(T), CCSD density, CASPT2, CASPT2-K, improved NEVPT2 
  Axel Koslowski         : Symmetry handling                             
  Simone Kossmann        : meta-GGA functionals, TD-DFT gradient, OOMP2, (MP2 Hessian; deprecated post 5.0) 
  Lucas Lang             : DCDCAS, Hyperfine gauge corrections, ICE-SOC+SSC
  Marvin Lechner         : AUTO-CI (C++ implementation), FIC-MRCC        
  Spencer Leger          : CASSCF response                               
  Dagmar Lenk            : GEPOL surface, SMD, ORCA-2-JSON               
  Dimitrios Liakos       : Extrapolation schemes; Compound Job, Property file
  Dimitrios Manganas     : Further ROCIS development; embedding schemes. LFT, Crystal Embedding 
  Dimitrios Pantazis     : SARC Basis sets                               
  Anastasios Papadopoulos: AUTO-CI, single reference methods and gradients 
  Taras Petrenko         : pre 6.0 DFT Hessian and TD-DFT gradient,  ECA, NRVS 
  Petra Pikulova         : Analytic Raman intensities                    
  Peter Pinski           : DLPNO-MP2, DLPNO-MP2 Gradient                 
  Shashank Vittal Rao    : ES-AILFT, MagRelax                            
  Christoph Reimann      : Effective Core Potentials                     
  Marius Retegan         : Local ZFS, SOC                                
  Christoph Riplinger    : Optimizer, TS searches, QM/MM, DLPNO-CCSD(T), (RO)-DLPNO pert. Triples 
  Michael Roemelt        : Original ROCIS implementation, recursive CI coupling coefficients
  Masaaki Saitow         : Open-shell DLPNO-CCSD energy and density      
  Barbara Sandhoefer     : DKH picture change effects                    
  Yorick L. A. Schmerwitz: GMF and freeze-and-release deltaSCF, NEB S-IDPP initial path                    
  Kantharuban Sivalingam : CASSCF convergence/infrastructure, NEVPT2, NEVPT3, NEVPT4(SD), FIC-MRCI and CEPA variants
  Bernardo de Souza      : ESD, SOC TD-DFT                               
  Georgi L. Stoychev     : AutoAux, RI-MP2 NMR, DLPNO-MP2 response, X2C  
  Van Anh Tran           : RI-MP2 g-tensors                              
  Willem Van den Heuvel  : Paramagnetic NMR                              
  Zikuan Wang            : NOTCH, Electric field optimization            
  Frank Wennmohs         : Technical directorship and infrastructure     
  Hang Xu                : AUTO-CI-Response properties                   
                                                                         
[FACCTs GmbH]                                                            
  Markus Bursch, Nicolas Foglia, Miquel Garcia-Rates, Ingolf Harden, Hagen Neugebauer, Anastasios Papadopoulos, 
  Christoph Riplinger, Bernardo de Souza, Georgi L. Stoychev                                                    
                                                                 
  APM, various basis sets, CI-OPT, improved COSX, DLPNO-Multilevel,           
  DOCKER, DRACO, updates on ESD, Fragmentator, GOAT, IRC, LR-CPCM, L-BFGS, MBIS, meta-GGA TD-DFT gradient, ML-optimized integration grids, 
  MM, NACMEs, nearIR, NEB, NEB-TS, NL-DFT gradient (VV10), 2- and 3-layer-ONIOM, interface openCOSMO-RS, QMMM,   
  Crystal-QMMM, RESP, rigid body optimization, SF, symmetry and pop. for TD-DFT, various functionals, SOLVATOR                                   
                                                                         
[Other institutions]                                                     
  V. Asgeirsson          : NEB                                           
  Christoph Bannwarth    : sTDA-DFT, sTD-DFT, PBEh-3c, B97-3c, D3        
  Giovanni Bistoni       : ETS/NOCV, ADLD/ADEX, COVALED                  
  Martin Brehm           : Molecular dynamics                            
  Ronald Cardenas        : ETS/NOCV                                      
  Martina Colucci        : COVALED                                       
  Sebastian Ehlert       : rSCAN, r2SCAN, r2SCAN-3c, D4, dhf basis sets  
  Marvin Friede          : D4 for Fr, Ra, Ac-Lr                          
  Lars Goerigk           : TD-DFT with DH, B97 family of functionals     
  Stefan Grimme          : VdW corrections, initial TS optimization, DFT functionals, gCP, sTDA/sTD-DF 
  Waldemar Hujo          : DFT-NL                                        
  H. Jonsson             : NEB                                           
  Holger Kruse           : gCP                                           
  Marcel Mueller         : wB97X-3c, vDZP basis set                      
  Hagen Neugebauer       : wr2SCAN, Native XTB                           
  Gianluca Regni         : ADLD/ADEX                                     
  Tobias Risthaus        : pre 6.0 range-separated hybrid DFT and stability analysis
  Lukas Wittmann         : regularized MP2, r2SCAN double-hybrids, wr2SCAN        
                                                                         
We gratefully acknowledge several colleagues who have allowed us to      
interface, adapt or use parts of their codes:                            
  Ed Valeev, F. Pavosevic, A. Kumar             : LibInt (2-el integral package), F12 methods 
  Garnet Chan, S. Sharma, J. Yang, R. Olivares  : DMRG                   
  Ulf Ekstrom                                   : XCFun DFT Library      
  Mihaly Kallay                                 : mrcc  (arbitrary order and MRCC methods)
  Frank Weinhold                                : gennbo (NPA and NBO analysis)           
  Simon Mueller                                 : openCOSMO-RS                            
  Christopher J. Cramer and Donald G. Truhlar   : smd solvation model                     
  S Lehtola, MJT Oliveira, MAL Marques          : LibXC Library                           
  Liviu Ungur et al                             : ANISO software                          


 Your calculation uses the libint2 library for the computation of 2-el integrals
 For citations please refer to: http://libint.valeyev.net

 Your ORCA version has been built with support for libXC version: 7.0.0
 For citations please refer to: https://libxc.gitlab.io

 This ORCA versions uses:
   CBLAS   interface :  Fast vector & matrix operations
   LAPACKE interface :  Fast linear algebra routines
   SCALAPACK package :  Parallel linear algebra routines
   Shared memory     :  Shared parallel matrices
   BLAS/LAPACK       :  OpenBLAS 0.3.29  USE64BITINT DYNAMIC_ARCH NO_AFFINITY Haswell SINGLE_THREADED
        Core in use  :  Haswell
   Copyright (c) 2011-2014, The OpenBLAS Project


  ***********************************
  * Starting time: Sat Mar 28 19:48:36 2026
  * Host name:     b16d68e4ac9b
  * Process ID:    46
  * Working dir.:  /kaggle/working
  ***********************************

NOTE: MaxCore=3000 MB was set to SCF,MP2,MDCI,CIPSI,MRCI,RASCI and CIS
      => If you want to overwrite this, your respective input block should be placed after the MaxCore statement
Your calculation utilizes the atom-pairwise dispersion correction
with the Becke-Johnson damping scheme (D3BJ)


Your calculation utilizes the SMD solvation module
Please cite in your paper:
Marenich, A. V.; Cramer, C. J.; Truhlar, D. G. J. Phys. Chem. B 2009, 113, 6378 

Warning: RI is on but no J-basis has been assigned. Assigning Def2/J (nothing to worry about!)
================================================================================

----- Orbital basis set information -----
Your calculation utilizes the basis: 6-31G(d,p)
   H-He, Li-Ne : W. J. Hehre, R. Ditchfield and J.A. Pople, J. Chem. Phys. 56, 2257 (1972).
                 Note: He and Ne are unpublished basis sets taken from the Gaussian program.
                 Note: Li and B from J. D. Dill and J. A. Pople, J. Chem. Phys. 62, 2921 (1975).
   Na - Ar     : M. M. Francl, W. J. Pietro, W. J. Hehre, J. S. Binkley, M. S. Gordon, 
                 D. J. DeFrees and J. A. Pople, J. Chem. Phys. 77, 3654 (1982).
   K - Zn      : V. A. Rassolov, J. A. Pople, M. A. Ratner, and T. L. Windus, J. Chem. Phys. 109, 1223 (1998).

----- AuxJ basis set information -----
Your calculation utilizes the auxiliary basis: def2/J
   H-Rn: F. Weigend, Phys. Chem. Chem. Phys. 8, 1057 (2006).
   Fr-Lr: K. Eichkorn, F. Weigend, O. Treutler, R. Ahlrichs; Theor. Chem. Acc. 97, 119 (1997).

================================================================================
                                        WARNINGS
                       Please study these warnings very carefully!
================================================================================


WARNING: Geometry Optimization
  ===> : Switching off AutoStart
         For restart on a previous wavefunction, please use MOREAD

================================================================================
                                       INPUT FILE
================================================================================
NAME = /kaggle/working/Trp-1/Trp_InterFrag.inp
|  1> 
|  2> !RKS B3LYP 6-31G(d,p) TightSCF Opt D3BJ
|  3>  
|  4> %pal nprocs 2 end
|  5> %maxcore 3000
|  6> 
|  7> %cpcm
|  8>   smd true
|  9>   SMDsolvent "WATER"
| 10>   end
| 11> 
| 12> %scf
| 13>   MaxIter 1000
| 14>   SOSCF Start 0.00033
| 15>   end
| 16> end
| 17> 
| 18> %output
| 19>   PrintLevel Normal
| 20>   Print[ P_OrbEn ] 2        # print ALL orbital energies (not just up to LUMO+9) :contentReference[oaicite:10]{index=10}
| 21>   XYZFile true              # writes basename.xyz (handy for reuse) :contentReference[oaicite:11]{index=11}
| 22>   end
| 23> 
| 24> *xyz 0 1
| 25> O        1.476200000     -0.815400000      1.728200000
| 26> O        2.559800000     -1.947200000      0.087900000
| 27> N       -1.647400000      2.004400000      0.548200000
| 28> N        3.875900000      0.365500000     -0.583200000
| 29> C        0.147500000      1.132300000     -0.423600000
| 30> C        1.506500000      0.984500000     -0.983000000
| 31> C       -0.866700000      0.134900000     -0.385900000
| 32> C        2.560100000      0.488100000      0.040200000
| 33> C       -1.982300000      0.707800000      0.228600000
| 34> C       -0.362500000      2.270200000      0.157900000
| 35> C       -0.943100000     -1.204500000     -0.816900000
| 36> C       -3.175100000      0.005500000      0.434600000
| 37> C        2.208300000     -0.885200000      0.586000000
| 38> C       -2.129800000     -1.919300000     -0.617600000
| 39> C       -3.227400000     -1.321600000     -0.001200000
| 40> H        1.472400000      0.294100000     -1.837000000
| 41> H        1.834600000      1.949700000     -1.392700000
| 42> H        2.639100000      1.190200000      0.878900000
| 43> H        0.072300000      3.244900000      0.330400000
| 44> H       -2.262000000      2.663900000      1.005100000
| 45> H       -0.100100000     -1.686400000     -1.303500000
| 46> H       -4.030100000      0.469900000      0.914300000
| 47> H       -2.194800000     -2.952200000     -0.949000000
| 48> H        4.571500000      0.134800000      0.125500000
| 49> H        4.154900000      1.265700000     -0.971700000
| 50> H       -4.139300000     -1.895300000      0.143400000
| 51> H        1.261700000     -1.705700000      2.079700000
| 52> *
| 53> 
| 54>                          ****END OF INPUT****
================================================================================

                       *****************************
                       * Geometry Optimization Run *
                       *****************************

Geometry optimization settings:
Update method            Update   .... BFGS
Choice of coordinates    CoordSys .... (2022) Redundant Internals
Initial Hessian          InHess   .... Almloef's Model
Max. no of cycles        MaxIter  .... 81

Convergence Tolerances:
Energy Change            TolE     ....  5.0000e-06 Eh
Max. Gradient            TolMAXG  ....  3.0000e-04 Eh/bohr
RMS Gradient             TolRMSG  ....  1.0000e-04 Eh/bohr
Max. Displacement        TolMAXD  ....  4.0000e-03 bohr
RMS Displacement         TolRMSD  ....  2.0000e-03 bohr
Strict Convergence                .... False

------------------------------------------------------------------------------
                        ORCA OPTIMIZATION COORDINATE SETUP
------------------------------------------------------------------------------

The optimization will be done in redundant internal coordinates (2022)
Making redundant internal coordinates   ...  (2022 redundants) done
Evaluating the initial hessian          ...  (Almloef) done
Evaluating the coordinates              ...  done
Calculating the B-matrix                .... done
Calculating the G-matrix                .... done
The number of degrees of freedom        ....  137

    -----------------------------------------------------------------
                    Redundant Internal Coordinates


    -----------------------------------------------------------------
         Definition                    Initial Value    Approx d2E/dq
    -----------------------------------------------------------------
      1. B(C   5,C   4)                  1.4770         0.453804   
      2. B(C   6,C   4)                  1.4230         0.553535   
      3. B(C   7,N   3)                  1.4612         0.430868   
      4. B(C   7,C   5)                  1.5503         0.346731   
      5. B(C   8,C   6)                  1.3966         0.609913   
      6. B(C   8,N   2)                  1.3768         0.587484   
      7. B(C   9,N   2)                  1.3689         0.604647   
      8. B(C   9,C   4)                  1.3759         0.658050   
      9. B(C  10,C   6)                  1.4091         0.582439   
     10. B(C  11,C   8)                  1.3994         0.603500   
     11. B(C  12,C   7)                  1.5191         0.388861   
     12. B(C  12,O   1)                  1.2245         1.027674   
     13. B(C  12,O   0)                  1.3585         0.628299   
     14. B(C  13,C  10)                  1.3996         0.603117   
     15. B(C  14,C  11)                  1.3978         0.607142   
     16. B(C  14,C  13)                  1.3935         0.616751   
     17. B(H  15,C   5)                  1.0987         0.348779   
     18. B(H  16,C   5)                  1.0987         0.348789   
     19. B(H  17,C   7)                  1.0966         0.351432   
     20. B(H  18,C   9)                  1.0811         0.372024   
     21. B(H  19,N   2)                  1.0107         0.431662   
     22. B(H  20,C  10)                  1.0861         0.365270   
     23. B(H  21,C  11)                  1.0848         0.367037   
     24. B(H  22,C  13)                  1.0867         0.364482   
     25. B(H  23,N   3)                  1.0195         0.417899   
     26. B(H  24,N   3)                  1.0194         0.418053   
     27. B(H  25,C  14)                  1.0870         0.364070   
     28. B(H  26,O   0)                  0.9809         0.481500   
     29. A(C  12,O   0,H  26)          111.8699         0.366102   
     30. A(C   8,N   2,C   9)          110.1816         0.422400   
     31. A(C   9,N   2,H  19)          124.9586         0.356996   
     32. A(C   8,N   2,H  19)          124.8598         0.355255   
     33. A(C   7,N   3,H  24)          109.5709         0.335418   
     34. A(H  23,N   3,H  24)          106.1424         0.299924   
     35. A(C   7,N   3,H  23)          109.6839         0.335397   
     36. A(C   5,C   4,C   9)          125.7232         0.414899   
     37. A(C   6,C   4,C   9)          107.7163         0.429887   
     38. A(C   5,C   4,C   6)          126.5606         0.402388   
     39. A(C   4,C   5,H  15)          109.1901         0.333141   
     40. A(C   7,C   5,H  16)          108.9326         0.318715   
     41. A(C   7,C   5,H  15)          109.4447         0.318714   
     42. A(H  15,C   5,H  16)          105.7508         0.287943   
     43. A(C   4,C   5,C   7)          114.0401         0.370904   
     44. A(C   4,C   5,H  16)          109.1525         0.333142   
     45. A(C   8,C   6,C  10)          118.7639         0.427959   
     46. A(C   4,C   6,C  10)          134.1704         0.420599   
     47. A(C   4,C   6,C   8)          107.0657         0.424076   
     48. A(N   3,C   7,C   5)          110.9332         0.365321   
     49. A(C   5,C   7,H  17)          110.4093         0.319108   
     50. A(N   3,C   7,H  17)          108.3696         0.328717   
     51. A(C  12,C   7,H  17)          108.7044         0.325159   
     52. A(N   3,C   7,C  12)          106.6179         0.372587   
     53. A(C   5,C   7,C  12)          111.6672         0.361220   
     54. A(C   6,C   8,C  11)          122.6679         0.430695   
     55. A(N   2,C   8,C  11)          130.2246         0.425021   
     56. A(N   2,C   8,C   6)          107.1075         0.425826   
     57. A(N   2,C   9,H  18)          120.4673         0.351182   
     58. A(C   4,C   9,H  18)          131.6037         0.358470   
     59. A(N   2,C   9,C   4)          107.9289         0.433908   
     60. A(C   6,C  10,C  13)          119.2003         0.427100   
     61. A(C  13,C  10,H  20)          119.6885         0.352113   
     62. A(C   6,C  10,H  20)          121.1106         0.350043   
     63. A(C   8,C  11,C  14)          117.5458         0.430343   
     64. A(C  14,C  11,H  21)          120.9853         0.352797   
     65. A(C   8,C  11,H  21)          121.4689         0.352438   
     66. A(O   0,C  12,O   1)          122.7694         0.470685   
     67. A(O   1,C  12,C   7)          124.8486         0.434248   
     68. A(O   0,C  12,C   7)          112.3615         0.397863   
     69. A(C  10,C  13,C  14)          120.7811         0.431509   
     70. A(C  14,C  13,H  22)          119.6997         0.353318   
     71. A(C  10,C  13,H  22)          119.5192         0.351984   
     72. A(C  13,C  14,H  25)          119.5529         0.353250   
     73. A(C  11,C  14,H  25)          119.4060         0.352313   
     74. A(C  11,C  14,C  13)          121.0412         0.432025   
     75. D(H  15,C   5,C   4,C   6)     32.7819         0.015185   
     76. D(C   7,C   5,C   4,C   9)     89.9945         0.015185   
     77. D(H  16,C   5,C   4,C   6)    147.9417         0.015185   
     78. D(H  15,C   5,C   4,C   9)   -147.2393         0.015185   
     79. D(C   7,C   5,C   4,C   6)    -89.9844         0.015185   
     80. D(C   8,C   6,C   4,C   9)      0.0000         0.020970   
     81. D(C   8,C   6,C   4,C   5)    179.9820         0.020970   
     82. D(C  10,C   6,C   4,C   9)    179.9982         0.020970   
     83. D(C  10,C   6,C   4,C   5)     -0.0198         0.020970   
     84. D(N   3,C   7,C   5,C   4)    179.9630         0.010000   
     85. D(C  12,C   7,N   3,H  23)    -64.2017         0.015828   
     86. D(C   5,C   7,N   3,H  24)     57.8755         0.015828   
     87. D(C   5,C   7,N   3,H  23)    174.0154         0.015828   
     88. D(C  12,C   7,C   5,H  15)    -61.4443         0.010000   
     89. D(C  12,C   7,C   5,C   4)     61.1829         0.010000   
     90. D(N   3,C   7,C   5,H  15)     57.3358         0.010000   
     91. D(C  12,C   7,C   5,H  16)   -176.6224         0.010000   
     92. D(C  12,C   7,N   3,H  24)    179.6584         0.015828   
     93. D(N   3,C   7,C   5,H  16)    -57.8423         0.010000   
     94. D(H  17,C   7,N   3,H  23)     52.6536         0.015828   
     95. D(C  11,C   8,C   6,C  10)      0.0074         0.025691   
     96. D(C  11,C   8,C   6,C   4)   -179.9941         0.025691   
     97. D(N   2,C   8,C   6,C  10)    179.9953         0.025691   
     98. D(C  11,C   8,N   2,H  19)      0.0070         0.027729   
     99. D(C  11,C   8,N   2,C   9)    179.9970         0.027729   
    100. D(C   6,C   8,N   2,H  19)   -179.9796         0.027729   
    101. D(C   6,C   8,N   2,C   9)      0.0103         0.027729   
    102. D(N   2,C   8,C   6,C   4)     -0.0062         0.025691   
    103. D(C   4,C   9,N   2,H  19)    179.9796         0.029492   
    104. D(C   4,C   9,N   2,C   8)     -0.0104         0.029492   
    105. D(H  18,C   9,N   2,C   8)   -179.9537         0.029492   
    106. D(H  18,C   9,C   4,C   6)    179.9408         0.030204   
    107. D(H  18,C   9,C   4,C   5)     -0.0413         0.030204   
    108. D(N   2,C   9,C   4,C   6)      0.0062         0.030204   
    109. D(N   2,C   9,C   4,C   5)   -179.9760         0.030204   
    110. D(H  18,C   9,N   2,H  19)      0.0363         0.029492   
    111. D(H  20,C  10,C   6,C   8)    179.7010         0.023316   
    112. D(H  20,C  10,C   6,C   4)     -0.2971         0.023316   
    113. D(C  13,C  10,C   6,C   8)     -0.0019         0.023316   
    114. D(C  13,C  10,C   6,C   4)   -179.9999         0.023316   
    115. D(H  21,C  11,C   8,C   6)    179.9969         0.025124   
    116. D(H  21,C  11,C   8,N   2)      0.0120         0.025124   
    117. D(C  14,C  11,C   8,C   6)     -0.0069         0.025124   
    118. D(C  14,C  11,C   8,N   2)   -179.9918         0.025124   
    119. D(O   1,C  12,C   7,C   5)     89.4994         0.011253   
    120. D(O   1,C  12,C   7,N   3)    -31.8175         0.011253   
    121. D(O   0,C  12,C   7,H  17)     29.9331         0.011253   
    122. D(O   0,C  12,C   7,C   5)    -92.1175         0.011253   
    123. D(O   0,C  12,C   7,N   3)    146.5656         0.011253   
    124. D(C   7,C  12,O   0,H  26)   -179.3604         0.029019   
    125. D(O   1,C  12,O   0,H  26)     -0.9385         0.029019   
    126. D(H  22,C  13,C  10,H  20)      0.2223         0.025090   
    127. D(H  22,C  13,C  10,C   6)    179.9294         0.025090   
    128. D(C  14,C  13,C  10,H  20)   -179.7109         0.025090   
    129. D(C  14,C  13,C  10,C   6)     -0.0038         0.025090   
    130. D(H  25,C  14,C  13,C  10)    179.9910         0.026305   
    131. D(C  11,C  14,C  13,H  22)   -179.9289         0.026305   
    132. D(C  11,C  14,C  13,C  10)      0.0042         0.026305   
    133. D(H  25,C  14,C  11,H  21)      0.0105         0.025445   
    134. D(H  25,C  14,C  11,C   8)   -179.9858         0.025445   
    135. D(C  13,C  14,C  11,H  21)    179.9973         0.025445   
    136. D(H  25,C  14,C  13,H  22)      0.0579         0.026305   
    137. D(C  13,C  14,C  11,C   8)      0.0010         0.025445   
    -----------------------------------------------------------------

Number of atoms                         .... 27
Number of degrees of freedom            .... 137


         *************************************************************
         *                GEOMETRY OPTIMIZATION CYCLE   1            *
         *************************************************************
---------------------------------
CARTESIAN COORDINATES (ANGSTROEM)
---------------------------------
  O      1.476200   -0.815400    1.728200
  O      2.559800   -1.947200    0.087900
  N     -1.647400    2.004400    0.548200
  N      3.875900    0.365500   -0.583200
  C      0.147500    1.132300   -0.423600
  C      1.506500    0.984500   -0.983000
  C     -0.866700    0.134900   -0.385900
  C      2.560100    0.488100    0.040200
  C     -1.982300    0.707800    0.228600
  C     -0.362500    2.270200    0.157900
  C     -0.943100   -1.204500   -0.816900
  C     -3.175100    0.005500    0.434600
  C      2.208300   -0.885200    0.586000
  C     -2.129800   -1.919300   -0.617600
  C     -3.227400   -1.321600   -0.001200
  H      1.472400    0.294100   -1.837000
  H      1.834600    1.949700   -1.392700
  H      2.639100    1.190200    0.878900
  H      0.072300    3.244900    0.330400
  H     -2.262000    2.663900    1.005100
  H     -0.100100   -1.686400   -1.303500
  H     -4.030100    0.469900    0.914300
  H     -2.194800   -2.952200   -0.949000
  H      4.571500    0.134800    0.125500
  H      4.154900    1.265700   -0.971700
  H     -4.139300   -1.895300    0.143400
  H      1.261700   -1.705700    2.079700

----------------------------
CARTESIAN COORDINATES (A.U.)
----------------------------
  NO LB      ZA    FRAG     MASS         X           Y           Z
   0 O     8.0000    0    15.999    2.789614   -1.540883    3.265825
   1 O     8.0000    0    15.999    4.837321   -3.679675    0.166107
   2 N     7.0000    0    14.007   -3.113135    3.787767    1.035948
   3 N     7.0000    0    14.007    7.324390    0.690695   -1.102088
   4 C     6.0000    0    12.011    0.278735    2.139737   -0.800488
   5 C     6.0000    0    12.011    2.846872    1.860435   -1.857601
   6 C     6.0000    0    12.011   -1.637826    0.254924   -0.729245
   7 C     6.0000    0    12.011    4.837888    0.922375    0.075967
   8 C     6.0000    0    12.011   -3.746004    1.337548    0.431991
   9 C     6.0000    0    12.011   -0.685026    4.290056    0.298388
  10 C     6.0000    0    12.011   -1.782201   -2.276175   -1.543717
  11 C     6.0000    0    12.011   -6.000069    0.010393    0.821275
  12 C     6.0000    0    12.011    4.173082   -1.672786    1.107380
  13 C     6.0000    0    12.011   -4.024739   -3.626951   -1.167095
  14 C     6.0000    0    12.011   -6.098902   -2.497462   -0.002268
  15 H     1.0000    0     1.008    2.782433    0.555768   -3.471427
  16 H     1.0000    0     1.008    3.466892    3.684399   -2.631822
  17 H     1.0000    0     1.008    4.987176    2.249152    1.660880
  18 H     1.0000    0     1.008    0.136627    6.131972    0.624366
  19 H     1.0000    0     1.008   -4.274561    5.034041    1.899364
  20 H     1.0000    0     1.008   -0.189162   -3.186834   -2.463258
  21 H     1.0000    0     1.008   -7.615785    0.887982    1.727777
  22 H     1.0000    0     1.008   -4.147571   -5.578849   -1.793350
  23 H     1.0000    0     1.008    8.638883    0.254735    0.237161
  24 H     1.0000    0     1.008    7.851623    2.391826   -1.836247
  25 H     1.0000    0     1.008   -7.822143   -3.581598    0.270987
  26 H     1.0000    0     1.008    2.384267   -3.223306    3.930063

--------------------------------
INTERNAL COORDINATES (ANGSTROEM)
--------------------------------
 O      0   0   0     0.000000000000     0.00000000     0.00000000
 O      1   0   0     2.268423304853     0.00000000     0.00000000
 N      1   2   0     4.370417485779   117.91041516     0.00000000
 N      2   1   3     2.744280545061    89.16626124    72.87445552
 C      3   1   2     2.219598986304    44.49971096   335.82348384
 C      5   3   1     1.477042382601   161.65298476   255.00167607
 C      5   3   1     1.422965104983    71.78644941    74.94591679
 C      4   2   1     1.461159799611    62.25783196   332.83084813
 C      3   1   2     1.376762045526    68.21639260    64.91934438
 C      3   1   2     1.368923569817    62.05727992   295.68181286
 C      7   5   3     1.409109761516   134.17044127   180.00208711
 C      9   3   1     1.399440291688   130.22462553   133.19517612
 C      2   1   3     1.224540673069    30.23573303    55.74389448
 C     11   7   5     1.399612953641   119.20026102   180.00007620
 C     14  11   7     1.393527900689   120.78106291     0.00000000
 H      6   5   3     1.098695121496   109.19011890   212.71593209
 H      6   5   3     1.098687735437   109.15252572   327.87580036
 H      8   4   2     1.096632618519   108.36958700   129.45496060
 H     10   3   1     1.081132452570   120.46731821   230.06632929
 H      3   1   2     1.010658705993   137.18846028   183.23517099
 H     11   7   5     1.086119777004   121.11056530   359.70288747
 H     12   9   3     1.084806180845   121.46892241     0.00000000
 H     14  11   7     1.086707582563   119.51917276   179.92943774
 H      4   2   1     1.019479053242    88.08135661    86.30968345
 H      4   2   1     1.019378874609   165.61916683   274.66181864
 H     15  14  11     1.087015390875   119.55285667   179.99103733
 H      1   2   3     0.980916199275    84.87822624   123.38170107

---------------------------
INTERNAL COORDINATES (A.U.)
---------------------------
 O      0   0   0     0.000000000000     0.00000000     0.00000000
 O      1   0   0     4.286698801977     0.00000000     0.00000000
 N      1   2   0     8.258892139022   117.91041516     0.00000000
 N      2   1   3     5.185938664813    89.16626124    72.87445552
 C      3   1   2     4.194434211243    44.49971096   335.82348384
 C      5   3   1     2.791205591311   161.65298476   255.00167607
 C      5   3   1     2.689014346545    71.78644941    74.94591679
 C      4   2   1     2.761191859161    62.25783196   332.83084813
 C      3   1   2     2.601703217621    68.21639260    64.91934438
 C      3   1   2     2.586890645224    62.05727992   295.68181286
 C      7   5   3     2.662831541901   134.17044127   180.00208711
 C      9   3   1     2.644558892065   130.22462553   133.19517612
 C      2   1   3     2.314046511948    30.23573303    55.74389448
 C     11   7   5     2.644885175870   119.20026102   180.00007620
 C     14  11   7     2.633386092281   120.78106291     0.00000000
 H      6   5   3     2.076232884304   109.19011890   212.71593209
 H      6   5   3     2.076218926674   109.15252572   327.87580036
 H      8   4   2     2.072335318526   108.36958700   129.45496060
 H     10   3   1     2.043044249852   120.46731821   230.06632929
 H      3   1   2     1.909868169191   137.18846028   183.23517099
 H     11   7   5     2.052468927174   121.11056530   359.70288747
 H     12   9   3     2.049986590183   121.46892241     0.00000000
 H     14  11   7     2.053579718700   119.51917276   179.92943774
 H      4   2   1     1.926536209897    88.08135661    86.30968345
 H      4   2   1     1.926346899717   165.61916683   274.66181864
 H     15  14  11     2.054161392112   119.55285667   179.99103733
 H      1   2   3     1.853662976957    84.87822624   123.38170107

---------------------
BASIS SET INFORMATION
---------------------
There are 4 groups of distinct atoms

 Group   1 Type O   : 10s4p1d contracted to 3s2p1d pattern {631/31/1}
 Group   2 Type N   : 10s4p1d contracted to 3s2p1d pattern {631/31/1}
 Group   3 Type C   : 10s4p1d contracted to 3s2p1d pattern {631/31/1}
 Group   4 Type H   : 4s1p contracted to 2s1p pattern {31/1}

Atom   0O    basis set group =>   1
Atom   1O    basis set group =>   1
Atom   2N    basis set group =>   2
Atom   3N    basis set group =>   2
Atom   4C    basis set group =>   3
Atom   5C    basis set group =>   3
Atom   6C    basis set group =>   3
Atom   7C    basis set group =>   3
Atom   8C    basis set group =>   3
Atom   9C    basis set group =>   3
Atom  10C    basis set group =>   3
Atom  11C    basis set group =>   3
Atom  12C    basis set group =>   3
Atom  13C    basis set group =>   3
Atom  14C    basis set group =>   3
Atom  15H    basis set group =>   4
Atom  16H    basis set group =>   4
Atom  17H    basis set group =>   4
Atom  18H    basis set group =>   4
Atom  19H    basis set group =>   4
Atom  20H    basis set group =>   4
Atom  21H    basis set group =>   4
Atom  22H    basis set group =>   4
Atom  23H    basis set group =>   4
Atom  24H    basis set group =>   4
Atom  25H    basis set group =>   4
Atom  26H    basis set group =>   4
---------------------------------
AUXILIARY/J BASIS SET INFORMATION
---------------------------------
There are 4 groups of distinct atoms

 Group   1 Type O   : 12s5p4d2f1g contracted to 6s4p3d1f1g pattern {711111/2111/211/2/1}
 Group   2 Type N   : 12s5p4d2f1g contracted to 6s4p3d1f1g pattern {711111/2111/211/2/1}
 Group   3 Type C   : 12s5p4d2f1g contracted to 6s4p3d1f1g pattern {711111/2111/211/2/1}
 Group   4 Type H   : 5s2p1d contracted to 3s1p1d pattern {311/2/1}

Atom   0O    basis set group =>   1
Atom   1O    basis set group =>   1
Atom   2N    basis set group =>   2
Atom   3N    basis set group =>   2
Atom   4C    basis set group =>   3
Atom   5C    basis set group =>   3
Atom   6C    basis set group =>   3
Atom   7C    basis set group =>   3
Atom   8C    basis set group =>   3
Atom   9C    basis set group =>   3
Atom  10C    basis set group =>   3
Atom  11C    basis set group =>   3
Atom  12C    basis set group =>   3
Atom  13C    basis set group =>   3
Atom  14C    basis set group =>   3
Atom  15H    basis set group =>   4
Atom  16H    basis set group =>   4
Atom  17H    basis set group =>   4
Atom  18H    basis set group =>   4
Atom  19H    basis set group =>   4
Atom  20H    basis set group =>   4
Atom  21H    basis set group =>   4
Atom  22H    basis set group =>   4
Atom  23H    basis set group =>   4
Atom  24H    basis set group =>   4
Atom  25H    basis set group =>   4
Atom  26H    basis set group =>   4


           ************************************************************
           *        Program running with 2 parallel MPI-processes     *
           *              working on a common directory               *
           ************************************************************
------------------------------------------------------------------------------
                             ORCA STARTUP CALCULATIONS
                           -- RI-GTO INTEGRALS CHOSEN --
------------------------------------------------------------------------------
------------------------------------------------------------------------------
                   ___                                                        
                  /   \      - P O W E R E D   B Y -                         
                 /     \                                                     
                 |  |  |   _    _      __       _____    __    __             
                 |  |  |  | |  | |    /  \     |  _  \  |  |  /  |          
                  \  \/   | |  | |   /    \    | | | |  |  | /  /          
                 / \  \   | |__| |  /  /\  \   | |_| |  |  |/  /          
                |  |  |   |  __  | /  /__\  \  |    /   |      \           
                |  |  |   | |  | | |   __   |  |    \   |  |\   \          
                \     /   | |  | | |  |  |  |  | |\  \  |  | \   \       
                 \___/    |_|  |_| |__|  |__|  |_| \__\ |__|  \__/        
                                                                              
                      - O R C A' S   B I G   F R I E N D -                    
                                      &                                       
                       - I N T E G R A L  F E E D E R -                       
                                                                              
 v1 FN, 2020, v2 2021, v3 2022-2024                                           
------------------------------------------------------------------------------


----------------------
SHARK INTEGRAL PACKAGE
----------------------

Number of atoms                             ...     27
Number of basis functions                   ...    270
Number of shells                            ...    126
Maximum angular momentum                    ...      2
Integral batch strategy                     ... SHARK/LIBINT Hybrid
RI-J (if used) integral strategy            ... SPLIT-RIJ (Revised 2003 algorithm where possible)
Printlevel                                  ...      1
Contraction scheme used                     ... SEGMENTED contraction
Prescreening option                         ... SCHWARTZ
   Thresh                                   ... 2.500e-11
   Tcut                                     ... 2.500e-12
   Tpresel                                  ... 2.500e-12 
Coulomb Range Separation                    ... NOT USED
Exchange Range Separation                   ... NOT USED
Multipole approximations                    ... NOT USED
Finite Nucleus Model                        ... NOT USED
CABS basis                                  ... NOT available
Auxiliary Coulomb fitting basis             ... AVAILABLE
   # of basis functions in Aux-J            ...    867
   # of shells in Aux-J                     ...    285
   Maximum angular momentum in Aux-J        ...      4
Auxiliary J/K fitting basis                 ... NOT available
Auxiliary Correlation fitting basis         ... NOT available
Auxiliary 'external' fitting basis          ... NOT available

Checking pre-screening integrals            ... done (  0.0 sec) Dimension = 126
   => SHARK Basis and OBASIS are compatible. Storing Pre-screening
Shell pair information
Shell pair cut-off parameter TPreSel        ...   2.5e-12
Total number of shell pairs                 ...      8001
Shell pairs after pre-screening             ...      6551
Total number of primitive shell pairs       ...     41106
Primitive shell pairs kept                  ...     20525
          la=0 lb=0:   1960 shell pairs
          la=1 lb=0:   2383 shell pairs
          la=1 lb=1:    767 shell pairs
          la=2 lb=0:    824 shell pairs
          la=2 lb=1:    517 shell pairs
          la=2 lb=2:    100 shell pairs

Checking whether 4 symmetric matrices of dimension 270 fit in memory
:Max Core in MB      =   3000.00
 MB in use           =     12.31
 MB left             =   2987.69
 MB needed           =      1.12
 Data fit in memory  = YES
Calculating RI/J V-Matrix + Cholesky decomp.... done (  0.0 sec)
Calculating Nuclear repulsion               ... done (  0.0 sec) ENN=    979.457578622869 Eh

Diagonalization of the overlap matrix:
Smallest eigenvalue                        ... 3.611e-04
Time for diagonalization                   ...    0.009 sec
Threshold for overlap eigenvalues          ... 1.000e-07
Number of eigenvalues below threshold      ... 0
Time for construction of square roots      ...    0.004 sec
Total time needed                          ...    0.014 sec

-------------------
DFT GRID GENERATION
-------------------

General Integration Accuracy     IntAcc      ... 4.388
Radial Grid Type                 RadialGrid  ... OptM3 with GC (2021)
Angular Grid (max. ang.)         AngularGrid ... 4 (Lebedev-302)
Angular grid pruning method      GridPruning ... 4 (adaptive)
Weight generation scheme         WeightScheme... mBecke (2022)
Basis function cutoff            BFCut       ... 1.0000e-11
Integration weight cutoff        WCut        ... 1.0000e-14
Partially contracted basis set               ... off
Rotationally invariant grid construction     ... off
Angular grids for H and He will be reduced by one unit

Total number of grid points                  ...   128227
Total number of batches                      ...     2021
Average number of points per batch           ...       63
Average number of grid points per atom       ...     4749

--------------------
COSX GRID GENERATION
--------------------

GRIDX 1
-------
General Integration Accuracy     IntAcc      ... 3.816
Radial Grid Type                 RadialGrid  ... OptM3 with GC (2021)
Angular Grid (max. ang.)         AngularGrid ... 1 (Lebedev-50)
Angular grid pruning method      GridPruning ... 4 (adaptive)
Weight generation scheme         WeightScheme... mBecke (2022)
Basis function cutoff            BFCut       ... 1.0000e-11
Integration weight cutoff        WCut        ... 1.0000e-14
Partially contracted basis set               ... on
Rotationally invariant grid construction     ... off
Angular grids for H and He will be reduced by one unit

Total number of grid points                  ...    16321
Total number of batches                      ...      142
Average number of points per batch           ...      114
Average number of grid points per atom       ...      604
UseSFitting                                  ... on

GRIDX 2
-------
General Integration Accuracy     IntAcc      ... 4.020
Radial Grid Type                 RadialGrid  ... OptM3 with GC (2021)
Angular Grid (max. ang.)         AngularGrid ... 2 (Lebedev-110)
Angular grid pruning method      GridPruning ... 4 (adaptive)
Weight generation scheme         WeightScheme... mBecke (2022)
Basis function cutoff            BFCut       ... 1.0000e-11
Integration weight cutoff        WCut        ... 1.0000e-14
Partially contracted basis set               ... on
Rotationally invariant grid construction     ... off
Angular grids for H and He will be reduced by one unit

Total number of grid points                  ...    35507
Total number of batches                      ...      290
Average number of points per batch           ...      122
Average number of grid points per atom       ...     1315
UseSFitting                                  ... on

GRIDX 3
-------
General Integration Accuracy     IntAcc      ... 4.338
Radial Grid Type                 RadialGrid  ... OptM3 with GC (2021)
Angular Grid (max. ang.)         AngularGrid ... 3 (Lebedev-194)
Angular grid pruning method      GridPruning ... 4 (adaptive)
Weight generation scheme         WeightScheme... mBecke (2022)
Basis function cutoff            BFCut       ... 1.0000e-11
Integration weight cutoff        WCut        ... 1.0000e-14
Partially contracted basis set               ... on
Rotationally invariant grid construction     ... off
Angular grids for H and He will be reduced by one unit

Total number of grid points                  ...    77781
Total number of batches                      ...      621
Average number of points per batch           ...      125
Average number of grid points per atom       ...     2881
UseSFitting                                  ... on
Grids setup in   3.5 sec
Initializing property integral containers    ... done (  0.0 sec)

SHARK setup successfully completed in   3.9 seconds

Maximum memory used throughout the entire STARTUP-calculation: 44.5 MB


           ************************************************************
           *        Program running with 2 parallel MPI-processes     *
           *              working on a common directory               *
           ************************************************************
-------------------------------------------------------------------------------
                                 ORCA GUESS
                   Start orbitals & Density for SCF / CASSCF
-------------------------------------------------------------------------------

------------
SCF SETTINGS
------------
Hamiltonian:
 Density Functional     Method          .... DFT(GTOs)
 Exchange Functional    Exchange        .... B88
   X-Alpha parameter    XAlpha          ....  0.666667
   Becke's b parameter  XBeta           ....  0.004200
 Correlation Functional Correlation     .... LYP
 LDA part of GGA corr.  LDAOpt          .... VWN-5
 Gradients option       PostSCFGGA      .... off
 Hybrid DFT is turned on
   Fraction HF Exchange ScalHFX         ....  0.200000
   Scaling of DF-GGA-X  ScalDFX         ....  0.720000
   Scaling of DF-GGA-C  ScalDFC         ....  0.810000
   Scaling of DF-LDA-C  ScalLDAC        ....  1.000000
   Perturbative correction              ....  0.000000
   NL short-range parameter             ....  4.800000
 RI-approximation to the Coulomb term is turned on
   Number of AuxJ basis functions       .... 867
   RIJ-COSX (HFX calculated with COS-X)).... on


General Settings:
 Integral files         IntName         .... /kaggle/working/Trp-1/Trp_InterFrag
 Hartree-Fock type      HFTyp           .... RHF
 Total Charge           Charge          ....    0
 Multiplicity           Mult            ....    1
 Number of Electrons    NEL             ....  108
 Basis Dimension        Dim             ....  270
 Nuclear Repulsion      ENuc            ....    979.4575786229 Eh

Convergence Acceleration:
 AO-DIIS                CNVDIIS         .... on
   Start iteration      DIISMaxIt       ....    12
   Startup error        DIISStart       ....  0.200000
   # of expansion vecs  DIISMaxEq       ....     5
   Bias factor          DIISBfac        ....   1.050
   Max. coefficient     DIISMaxC        ....  10.000
 MO-DIIS                CNVKDIIS        .... off
 Trust-Rad. Augm. Hess. CNVTRAH         .... auto
   Auto Start mean grad. ratio tolernc. ....  1.125000
   Auto Start start iteration           ....    50
   Auto Start num. interpolation iter.  ....    10
   Max. Number of Micro iterations      ....    24
   Max. Number of Macro iterations      .... Maxiter - #DIIS iter
   Number of Davidson start vectors     ....     2
   Converg. threshold    (grad. norm)   ....   1.000e-05
   Grad. Scal. Fac. for Micro threshold ....   0.100
   Minimum threshold for Micro iter.    ....   1.000e-02
   NR start threshold (gradient norm)   ....   1.000e-04
   Initial trust radius                 ....   0.400
   Minimum AH scaling param. (alpha)    ....   1.000
   Maximum AH scaling param. (alpha)    .... 1000.000
   Quad. conv. algorithm                .... NR
   White noise on init. David. guess    .... on
   Maximum white noise                  ....   0.010
   Pseudo random numbers                .... off
   Inactive MOs                         .... canonical
   Orbital update algorithm             .... Taylor
   Preconditioner                       .... Diag
   Full preconditioner red. dimension   ....   250
 SOSCF                 CNVSOSCF           .... on
   Start iteration     SOSCFMaxIt         ....   150
   Startup grad/error  SOSCFStart         ....  0.000330
   Hessian update      SOSCFHessUp        .... L-BFGS
   Autom. constraints  SOSCFAutoConstrain .... off
 Level Shifting         CNVShift        .... on
   Level shift para.    LevelShift      ....    0.2500
   Turn off err/grad.   ShiftErr        ....    0.0010
 Zerner damping         CNVZerner       .... off
 Static damping         CNVDamp         .... on
   Fraction old density DampFac         ....    0.7000
   Max. Damping (<1)    DampMax         ....    0.9800
   Min. Damping (>=0)   DampMin         ....    0.0000
   Turn off err/grad.   DampErr         ....    0.1000

SCF Procedure:
 Maximum # iterations   MaxIter         ....  1000
 SCF integral mode      SCFMode         .... Direct
   Integral package                     .... SHARK and LIBINT hybrid scheme
 Reset frequency        DirectResetFreq ....    20
 Integral Threshold     Thresh          ....  2.500e-11 Eh
 Primitive CutOff       TCut            ....  2.500e-12 Eh

Convergence Tolerance:
 Convergence Check Mode ConvCheckMode   .... Total+1el-Energy
 Convergence forced     ConvForced      .... 0
 Energy Change          TolE            ....  1.000e-08 Eh
 1-El. energy change                    ....  1.000e-05 Eh
 Orbital Gradient       TolG            ....  1.000e-05
 Orbital Rotation angle TolX            ....  1.000e-05
 DIIS Error             TolErr          ....  5.000e-07

------------------------------
INITIAL GUESS: MODEL POTENTIAL
------------------------------
Loading Hartree-Fock densities                     ... done
Calculating cut-offs                               ... done
Initializing the effective Hamiltonian             ... done
Setting up the integral package (SHARK)            ... done
Starting the Coulomb interaction                   ... done (   0.4 sec)
Making the grid                                    ... done (   0.4 sec)
Mapping shells                                     ... done
Starting the XC term evaluation                    ... done (   0.3 sec)
  promolecular density results
     # of electrons  =    107.989728835
     EX              =    -89.731689687
     EC              =     -3.688530085
     EX+EC           =    -93.420219772
Transforming the Hamiltonian                       ... done (   0.0 sec)
Diagonalizing the Hamiltonian                      ... done (   0.0 sec)
Back transforming the eigenvectors                 ... done (   0.0 sec)
Now organizing SCF variables                       ... done
                      ------------------
                      INITIAL GUESS DONE (   1.1 sec)
                      ------------------
             **** ENERGY FILE WAS UPDATED (/kaggle/working/Trp-1/Trp_InterFrag.en.tmp) ****
Finished Guess after   1.4 sec
Maximum memory used throughout the entire GUESS-calculation: 17.8 MB


           ************************************************************
           *        Program running with 2 parallel MPI-processes     *
           *              working on a common directory               *
           ************************************************************

-------------------------------------------------------------------------------------------
                                      ORCA LEAN-SCF
                              memory conserving SCF solver
-------------------------------------------------------------------------------------------

--------------------
CPCM SOLVATION MODEL
--------------------
CPCM parameters:
  Epsilon                                         ...      78.3550
  Refrac                                          ...       1.3328
  Rsolv                                           ...       1.3000
  Surface type                                    ... GAUSSIAN VDW
  Discretization scheme                           ... Constant charge density
    Threshold for H atoms                         ...       5.0000 (charges/Ang^2)
    Threshold for non-H atoms                     ...       5.0000 (charges/Ang^2)
  Epsilon function type                           ...         CPCM
Solvent:                                          ... WATER
SMD-CDS solvent descriptors:
  Soln                                            ...       1.3328
  Soln25                                          ...       1.3323
  Sola                                            ...       0.0000
  Solb                                            ...       0.0000
  Solg                                            ...       0.0000
  Solc                                            ...       0.0000
  Solh                                            ...       0.0000
Radii:
  Scheme                                          ... Element-dependent radii
  Radius for O  used is    2.8724 Bohr (=   1.5200 Ang.)
  Radius for N  used is    3.5716 Bohr (=   1.8900 Ang.)
  Radius for C  used is    3.4960 Bohr (=   1.8500 Ang.)
  Radius for H  used is    2.2677 Bohr (=   1.2000 Ang.)
Calculating surface                               ...        done! (  0.0s)
Cavity surface points                             ...         2073
Cavity Volume                                     ...    1388.1284
Cavity Surface-area                               ...     821.1476
Calculating surface distance matrix               ...        done! (  0.1s)
Performing Cholesky decomposition & store         ...        done! (  0.2s)
Overall time for CPCM initialization              ...                 0.3s

----------------------------------------D-I-I-S--------------------------------------------
Iteration    Energy (Eh)           Delta-E    RMSDP     MaxDP     DIISErr   Damp  Time(sec)
-------------------------------------------------------------------------------------------
               ***  Starting incremental Fock matrix formation  ***
    1    -685.5816644110367406     0.00e+00  3.59e-03  9.00e-02  2.62e-01  0.700   9.6
    2    -685.7712987152573305    -1.90e-01  2.43e-03  5.13e-02  1.16e-01  0.700   5.0
                               ***Turning on AO-DIIS***
    3    -685.8479650118928248    -7.67e-02  1.03e-03  1.51e-02  3.59e-02  0.700   5.0
    4    -685.8938985106591417    -4.59e-02  1.81e-03  2.40e-02  1.84e-02  0.000   4.7
    5    -685.9936877853216401    -9.98e-02  3.46e-04  6.91e-03  5.98e-03  0.000   4.8
    6    -685.9942834449669817    -5.96e-04  1.17e-04  2.50e-03  2.46e-03  0.000   4.4
    7    -685.9943200085637045    -3.66e-05  4.15e-05  8.43e-04  4.26e-04  0.000   4.1
               *** Restarting incremental Fock matrix formation ***
                             ****Resetting DIIS****
    8    -685.9943266076840018    -6.60e-06  3.21e-05  9.31e-04  5.33e-04  0.000   9.4
    9    -685.9943256627271921     9.45e-07  1.45e-05  6.67e-04  9.56e-04  0.000   6.0
                              *** Initializing SOSCF ***
---------------------------------------S-O-S-C-F--------------------------------------
Iteration    Energy (Eh)           Delta-E    RMSDP     MaxDP     MaxGrad    Time(sec)
--------------------------------------------------------------------------------------
   10    -685.9943275968863645    -1.93e-06  2.60e-06  6.61e-05  7.94e-05     5.4
               *** Restarting incremental Fock matrix formation ***
   11    -685.9943276088280300    -1.19e-08  2.70e-06  7.57e-05  1.89e-05     9.4
   12    -685.9943276055338401     3.29e-09  1.59e-06  5.20e-05  3.63e-05     4.3
                 **** Energy Check signals convergence ****

               *****************************************************
               *                     SUCCESS                       *
               *           SCF CONVERGED AFTER  12 CYCLES          *
               *****************************************************

Recomputing exchange energy using gridx3       ... done (   14.593 sec)
Old exchange energy                            :    -18.231781802 Eh
New exchange energy                            :    -18.231810115 Eh
Exchange energy change after final integration :     -0.000028313 Eh
Total energy after final integration           :   -685.994355934 Eh

SMD CDS free energy correction energy :                 5.17012     Kcal/mol
Total Energy after SMD CDS correction =              -685.986116824 Eh
             **** ENERGY FILE WAS UPDATED (/kaggle/working/Trp-1/Trp_InterFrag.en.tmp) ****

----------------
TOTAL SCF ENERGY
----------------

Total Energy       :       -685.98611682383557 Eh          -18666.63123 eV

Components:
Nuclear Repulsion  :        979.45757862286894 Eh           26652.39570 eV
Electronic Energy  :      -1665.40906209773811 Eh          -45318.08451 eV
One Electron Energy:      -2878.24790726450328 Eh          -78321.10732 eV
Two Electron Energy:       1212.83884516676517 Eh           33003.02282 eV
CPCM Dielectric    :         -0.04284414658294 Eh              -1.16585 eV
SMD CDS (Gcds)     :          0.00823911063817 Eh               0.22420 eV

Virial components:
Potential Energy   :      -1367.84032044995342 Eh          -37220.82739 eV
Kinetic Energy     :        681.85420362611785 Eh           18554.19616 eV
Virial Ratio       :          2.00605981920438

DFT components:
N(Alpha)           :       54.000042981096 electrons
N(Beta)            :       54.000042981096 electrons
N(Total)           :      108.000085962193 electrons
E(X)               :      -72.418265008844 Eh       
E(C)               :       -4.349335258256 Eh       
E(XC)              :      -76.767600267100 Eh       

CPCM Solvation Model Properties:
Surface-charge          :         -0.03677382907610
Corrected charge        :         -0.00000000000000
Outlying charge corr.   :          0.00008797981407 Eh               0.00239 eV
Free-energy (cav+disp)  :          0.00823911063817 Eh               0.22420 eV

---------------
SCF CONVERGENCE
---------------

  Last Energy change         ...   -3.2942e-09  Tolerance :   1.0000e-08
  Last MAX-Density change    ...    5.1993e-05  Tolerance :   1.0000e-07
  Last RMS-Density change    ...    1.5870e-06  Tolerance :   5.0000e-09
  Last DIIS Error            ...    7.9350e-05  Tolerance :   5.0000e-07
  Last Orbital Gradient      ...    3.6317e-05  Tolerance :   1.0000e-05
  Last Orbital Rotation      ...    4.2927e-05  Tolerance :   1.0000e-05


----------------
ORBITAL ENERGIES
----------------

  NO   OCC          E(Eh)            E(eV) 
   0   2.0000     -19.186280      -522.0852 
   1   2.0000     -19.138293      -520.7794 
   2   2.0000     -14.359434      -390.7401 
   3   2.0000     -14.301097      -389.1526 
   4   2.0000     -10.316755      -280.7332 
   5   2.0000     -10.214750      -277.9575 
   6   2.0000     -10.202224      -277.6166 
   7   2.0000     -10.200810      -277.5782 
   8   2.0000     -10.178515      -276.9715 
   9   2.0000     -10.175682      -276.8944 
  10   2.0000     -10.173294      -276.8294 
  11   2.0000     -10.170816      -276.7620 
  12   2.0000     -10.167979      -276.6848 
  13   2.0000     -10.166920      -276.6559 
  14   2.0000     -10.162382      -276.5325 
  15   2.0000      -1.092972       -29.7413 
  16   2.0000      -1.008431       -27.4408 
  17   2.0000      -0.970907       -26.4197 
  18   2.0000      -0.881308       -23.9816 
  19   2.0000      -0.831829       -22.6352 
  20   2.0000      -0.792912       -21.5762 
  21   2.0000      -0.736266       -20.0348 
  22   2.0000      -0.727062       -19.7844 
  23   2.0000      -0.703805       -19.1515 
  24   2.0000      -0.665118       -18.0988 
  25   2.0000      -0.613807       -16.7025 
  26   2.0000      -0.586401       -15.9568 
  27   2.0000      -0.577624       -15.7180 
  28   2.0000      -0.545862       -14.8537 
  29   2.0000      -0.523833       -14.2542 
  30   2.0000      -0.502939       -13.6857 
  31   2.0000      -0.478100       -13.0098 
  32   2.0000      -0.475928       -12.9507 
  33   2.0000      -0.465567       -12.6687 
  34   2.0000      -0.458416       -12.4741 
  35   2.0000      -0.443680       -12.0732 
  36   2.0000      -0.426178       -11.5969 
  37   2.0000      -0.421021       -11.4566 
  38   2.0000      -0.416641       -11.3374 
  39   2.0000      -0.413048       -11.2396 
  40   2.0000      -0.403105       -10.9690 
  41   2.0000      -0.387676       -10.5492 
  42   2.0000      -0.370030       -10.0690 
  43   2.0000      -0.363261        -9.8848 
  44   2.0000      -0.357660        -9.7324 
  45   2.0000      -0.339342        -9.2340 
  46   2.0000      -0.328398        -8.9362 
  47   2.0000      -0.324173        -8.8212 
  48   2.0000      -0.316349        -8.6083 
  49   2.0000      -0.276360        -7.5201 
  50   2.0000      -0.264888        -7.2080 
  51   2.0000      -0.234167        -6.3720 
  52   2.0000      -0.220271        -5.9939 
  53   2.0000      -0.192058        -5.2262 
  54   0.0000      -0.007660        -0.2084 
  55   0.0000       0.003163         0.0861 
  56   0.0000       0.034909         0.9499 
  57   0.0000       0.071290         1.9399 
  58   0.0000       0.098700         2.6858 
  59   0.0000       0.105766         2.8780 
  60   0.0000       0.116077         3.1586 
  61   0.0000       0.120598         3.2817 
  62   0.0000       0.142700         3.8831 
  63   0.0000       0.156036         4.2460 
  64   0.0000       0.164246         4.4694 
  65   0.0000       0.170561         4.6412 
  66   0.0000       0.180476         4.9110 
  67   0.0000       0.187759         5.1092 
  68   0.0000       0.194527         5.2933 
  69   0.0000       0.201402         5.4804 
  70   0.0000       0.205230         5.5846 
  71   0.0000       0.224403         6.1063 
  72   0.0000       0.249568         6.7911 
  73   0.0000       0.259533         7.0622 
  74   0.0000       0.273936         7.4542 
  75   0.0000       0.279943         7.6176 
  76   0.0000       0.288937         7.8624 
  77   0.0000       0.296487         8.0678 
  78   0.0000       0.322446         8.7742 
  79   0.0000       0.340448         9.2641 
  80   0.0000       0.355216         9.6659 
  81   0.0000       0.362127         9.8540 
  82   0.0000       0.378332        10.2949 
  83   0.0000       0.406472        11.0607 
  84   0.0000       0.458876        12.4867 
  85   0.0000       0.495197        13.4750 
  86   0.0000       0.510400        13.8887 
  87   0.0000       0.514182        13.9916 
  88   0.0000       0.538160        14.6441 
  89   0.0000       0.538584        14.6556 
  90   0.0000       0.551080        14.9956 
  91   0.0000       0.558932        15.2093 
  92   0.0000       0.568255        15.4630 
  93   0.0000       0.574296        15.6274 
  94   0.0000       0.592885        16.1332 
  95   0.0000       0.607325        16.5262 
  96   0.0000       0.608935        16.5700 
  97   0.0000       0.617388        16.8000 
  98   0.0000       0.621550        16.9132 
  99   0.0000       0.628608        17.1053 
 100   0.0000       0.632806        17.2195 
 101   0.0000       0.639401        17.3990 
 102   0.0000       0.642710        17.4890 
 103   0.0000       0.646293        17.5865 
 104   0.0000       0.657277        17.8854 
 105   0.0000       0.684521        18.6268 
 106   0.0000       0.688330        18.7304 
 107   0.0000       0.698194        18.9988 
 108   0.0000       0.728894        19.8342 
 109   0.0000       0.745065        20.2742 
 110   0.0000       0.753759        20.5108 
 111   0.0000       0.782524        21.2936 
 112   0.0000       0.785962        21.3871 
 113   0.0000       0.796824        21.6827 
 114   0.0000       0.806334        21.9415 
 115   0.0000       0.815755        22.1978 
 116   0.0000       0.825558        22.4646 
 117   0.0000       0.829084        22.5605 
 118   0.0000       0.836573        22.7643 
 119   0.0000       0.843780        22.9604 
 120   0.0000       0.860762        23.4225 
 121   0.0000       0.868848        23.6425 
 122   0.0000       0.879099        23.9215 
 123   0.0000       0.882073        24.0024 
 124   0.0000       0.899541        24.4777 
 125   0.0000       0.914587        24.8872 
 126   0.0000       0.917442        24.9649 
 127   0.0000       0.932326        25.3699 
 128   0.0000       0.935225        25.4488 
 129   0.0000       0.947685        25.7878 
 130   0.0000       0.957022        26.0419 
 131   0.0000       0.982504        26.7353 
 132   0.0000       0.990302        26.9475 
 133   0.0000       0.992164        26.9982 
 134   0.0000       1.018956        27.7272 
 135   0.0000       1.035819        28.1861 
 136   0.0000       1.049624        28.5617 
 137   0.0000       1.067983        29.0613 
 138   0.0000       1.090219        29.6664 
 139   0.0000       1.097761        29.8716 
 140   0.0000       1.118927        30.4476 
 141   0.0000       1.131095        30.7787 
 142   0.0000       1.142089        31.0778 
 143   0.0000       1.163222        31.6529 
 144   0.0000       1.175165        31.9779 
 145   0.0000       1.210234        32.9321 
 146   0.0000       1.250525        34.0285 
 147   0.0000       1.259840        34.2820 
 148   0.0000       1.305368        35.5209 
 149   0.0000       1.334661        36.3180 
 150   0.0000       1.339730        36.4559 
 151   0.0000       1.347502        36.6674 
 152   0.0000       1.370234        37.2860 
 153   0.0000       1.380232        37.5580 
 154   0.0000       1.388010        37.7697 
 155   0.0000       1.396263        37.9942 
 156   0.0000       1.399912        38.0935 
 157   0.0000       1.426241        38.8100 
 158   0.0000       1.438393        39.1407 
 159   0.0000       1.446195        39.3530 
 160   0.0000       1.466459        39.9044 
 161   0.0000       1.484747        40.4020 
 162   0.0000       1.502677        40.8899 
 163   0.0000       1.517669        41.2979 
 164   0.0000       1.590069        43.2680 
 165   0.0000       1.601763        43.5862 
 166   0.0000       1.620623        44.0994 
 167   0.0000       1.646867        44.8135 
 168   0.0000       1.698974        46.2314 
 169   0.0000       1.720546        46.8184 
 170   0.0000       1.749413        47.6039 
 171   0.0000       1.762655        47.9643 
 172   0.0000       1.776587        48.3434 
 173   0.0000       1.788098        48.6566 
 174   0.0000       1.803650        49.0798 
 175   0.0000       1.812437        49.3189 
 176   0.0000       1.847213        50.2652 
 177   0.0000       1.854982        50.4766 
 178   0.0000       1.859388        50.5965 
 179   0.0000       1.872842        50.9626 
 180   0.0000       1.894119        51.5416 
 181   0.0000       1.901648        51.7465 
 182   0.0000       1.910155        51.9780 
 183   0.0000       1.918948        52.2172 
 184   0.0000       1.925705        52.4011 
 185   0.0000       1.932173        52.5771 
 186   0.0000       1.964113        53.4462 
 187   0.0000       1.969020        53.5798 
 188   0.0000       1.988348        54.1057 
 189   0.0000       2.000971        54.4492 
 190   0.0000       2.009330        54.6767 
 191   0.0000       2.023061        55.0503 
 192   0.0000       2.035127        55.3786 
 193   0.0000       2.058733        56.0210 
 194   0.0000       2.068091        56.2756 
 195   0.0000       2.084583        56.7244 
 196   0.0000       2.122109        57.7455 
 197   0.0000       2.127915        57.9035 
 198   0.0000       2.147961        58.4490 
 199   0.0000       2.171776        59.0970 
 200   0.0000       2.194204        59.7073 
 201   0.0000       2.212954        60.2175 
 202   0.0000       2.232639        60.7532 
 203   0.0000       2.241252        60.9876 
 204   0.0000       2.267363        61.6981 
 205   0.0000       2.271070        61.7989 
 206   0.0000       2.292140        62.3723 
 207   0.0000       2.297810        62.5266 
 208   0.0000       2.324102        63.2420 
 209   0.0000       2.328635        63.3654 
 210   0.0000       2.337751        63.6134 
 211   0.0000       2.373887        64.5968 
 212   0.0000       2.377328        64.6904 
 213   0.0000       2.396451        65.2107 
 214   0.0000       2.405557        65.4585 
 215   0.0000       2.408445        65.5371 
 216   0.0000       2.427283        66.0497 
 217   0.0000       2.434838        66.2553 
 218   0.0000       2.449502        66.6543 
 219   0.0000       2.465490        67.0894 
 220   0.0000       2.492337        67.8199 
 221   0.0000       2.497871        67.9705 
 222   0.0000       2.519882        68.5695 
 223   0.0000       2.524450        68.6938 
 224   0.0000       2.538070        69.0644 
 225   0.0000       2.557596        69.5957 
 226   0.0000       2.568080        69.8810 
 227   0.0000       2.586472        70.3815 
 228   0.0000       2.597019        70.6685 
 229   0.0000       2.599938        70.7479 
 230   0.0000       2.628814        71.5337 
 231   0.0000       2.639120        71.8141 
 232   0.0000       2.647856        72.0518 
 233   0.0000       2.668412        72.6112 
 234   0.0000       2.692150        73.2571 
 235   0.0000       2.719389        73.9983 
 236   0.0000       2.726913        74.2031 
 237   0.0000       2.735203        74.4287 
 238   0.0000       2.740224        74.5653 
 239   0.0000       2.767518        75.3080 
 240   0.0000       2.790304        75.9280 
 241   0.0000       2.794044        76.0298 
 242   0.0000       2.805421        76.3394 
 243   0.0000       2.824415        76.8562 
 244   0.0000       2.854616        77.6780 
 245   0.0000       2.887690        78.5780 
 246   0.0000       2.894254        78.7567 
 247   0.0000       2.928576        79.6906 
 248   0.0000       2.937466        79.9325 
 249   0.0000       2.993258        81.4507 
 250   0.0000       3.016631        82.0867 
 251   0.0000       3.040446        82.7347 
 252   0.0000       3.069805        83.5337 
 253   0.0000       3.115845        84.7864 
 254   0.0000       3.174230        86.3752 
 255   0.0000       3.203948        87.1839 
 256   0.0000       3.235522        88.0430 
 257   0.0000       3.258682        88.6732 
 258   0.0000       3.308466        90.0279 
 259   0.0000       3.313343        90.1606 
 260   0.0000       3.338544        90.8464 
 261   0.0000       3.393171        92.3329 
 262   0.0000       3.418518        93.0226 
 263   0.0000       3.461592        94.1947 
 264   0.0000       3.485994        94.8587 
 265   0.0000       3.513534        95.6081 
 266   0.0000       3.518456        95.7420 
 267   0.0000       3.541859        96.3789 
 268   0.0000       3.793432       103.2245 
 269   0.0000       3.900447       106.1366 

                    ********************************
                    * MULLIKEN POPULATION ANALYSIS *
                    ********************************

-----------------------
MULLIKEN ATOMIC CHARGES
-----------------------
   0 O :   -0.507156
   1 O :   -0.514209
   2 N :   -0.538411
   3 N :   -0.638251
   4 C :   -0.007435
   5 C :   -0.242264
   6 C :    0.067544
   7 C :    0.011240
   8 C :    0.220470
   9 C :    0.019183
  10 C :   -0.185397
  11 C :   -0.133565
  12 C :    0.571018
  13 C :   -0.130485
  14 C :   -0.139386
  15 H :    0.119466
  16 H :    0.127855
  17 H :    0.121593
  18 H :    0.145955
  19 H :    0.306278
  20 H :    0.104033
  21 H :    0.113629
  22 H :    0.100653
  23 H :    0.266286
  24 H :    0.266483
  25 H :    0.103375
  26 H :    0.371498
Sum of atomic charges:    0.0000000

--------------------------------
MULLIKEN REDUCED ORBITAL CHARGES
--------------------------------
  0 O s       :     3.827539  s :     3.827539
      pz      :     1.462135  p :     4.658600
      px      :     1.650692
      py      :     1.545773
      dz2     :     0.005519  d :     0.021018
      dxz     :     0.004427
      dyz     :     0.003804
      dx2y2   :     0.005160
      dxy     :     0.002108

  1 O s       :     3.849660  s :     3.849660
      pz      :     1.633149  p :     4.638962
      px      :     1.529529
      py      :     1.476284
      dz2     :     0.003773  d :     0.025588
      dxz     :     0.001825
      dyz     :     0.007047
      dx2y2   :     0.005766
      dxy     :     0.007177

  2 N s       :     3.598101  s :     3.598101
      pz      :     1.504225  p :     3.903909
      px      :     1.195180
      py      :     1.204504
      dz2     :     0.003039  d :     0.036401
      dxz     :     0.007025
      dyz     :     0.006770
      dx2y2   :     0.009244
      dxy     :     0.010323

  3 N s       :     3.612287  s :     3.612287
      pz      :     1.458928  p :     3.997463
      px      :     1.084825
      py      :     1.453710
      dz2     :     0.003791  d :     0.028500
      dxz     :     0.010753
      dyz     :     0.002331
      dx2y2   :     0.007725
      dxy     :     0.003901

  4 C s       :     3.135545  s :     3.135545
      pz      :     1.015699  p :     2.829769
      px      :     0.897200
      py      :     0.916871
      dz2     :     0.005101  d :     0.042121
      dxz     :     0.006646
      dyz     :     0.007059
      dx2y2   :     0.010272
      dxy     :     0.013044

  5 C s       :     3.227845  s :     3.227845
      pz      :     0.978024  p :     2.975598
      px      :     0.949067
      py      :     1.048507
      dz2     :     0.005098  d :     0.038821
      dxz     :     0.009538
      dyz     :     0.009571
      dx2y2   :     0.009120
      dxy     :     0.005493

  6 C s       :     3.136480  s :     3.136480
      pz      :     0.999134  p :     2.752859
      px      :     0.901193
      py      :     0.852532
      dz2     :     0.004743  d :     0.043117
      dxz     :     0.007044
      dyz     :     0.007738
      dx2y2   :     0.010917
      dxy     :     0.012677

  7 C s       :     3.181749  s :     3.181749
      pz      :     0.971934  p :     2.750287
      px      :     0.839654
      py      :     0.938699
      dz2     :     0.007922  d :     0.056724
      dxz     :     0.012644
      dyz     :     0.013023
      dx2y2   :     0.014123
      dxy     :     0.009011

  8 C s       :     3.069244  s :     3.069244
      pz      :     0.991775  p :     2.651379
      px      :     0.897938
      py      :     0.761666
      dz2     :     0.006864  d :     0.058907
      dxz     :     0.008127
      dyz     :     0.011185
      dx2y2   :     0.017843
      dxy     :     0.014889

  9 C s       :     3.123757  s :     3.123757
      pz      :     1.005181  p :     2.805593
      px      :     0.804029
      py      :     0.996383
      dz2     :     0.007765  d :     0.051468
      dxz     :     0.009707
      dyz     :     0.005264
      dx2y2   :     0.016682
      dxy     :     0.012050

 10 C s       :     3.199200  s :     3.199200
      pz      :     1.007839  p :     2.951214
      px      :     0.954132
      py      :     0.989243
      dz2     :     0.002753  d :     0.034983
      dxz     :     0.005490
      dyz     :     0.006348
      dx2y2   :     0.010395
      dxy     :     0.009997

 11 C s       :     3.171315  s :     3.171315
      pz      :     1.017088  p :     2.927881
      px      :     0.966292
      py      :     0.944502
      dz2     :     0.003000  d :     0.034369
      dxz     :     0.005192
      dyz     :     0.006252
      dx2y2   :     0.008970
      dxy     :     0.010955

 12 C s       :     2.996612  s :     2.996612
      pz      :     0.710345  p :     2.312978
      px      :     0.722287
      py      :     0.880347
      dz2     :     0.029243  d :     0.119392
      dxz     :     0.019394
      dyz     :     0.027234
      dx2y2   :     0.024414
      dxy     :     0.019108

 13 C s       :     3.187297  s :     3.187297
      pz      :     1.010627  p :     2.908272
      px      :     0.928407
      py      :     0.969238
      dz2     :     0.003879  d :     0.034916
      dxz     :     0.006479
      dyz     :     0.004109
      dx2y2   :     0.011363
      dxy     :     0.009086

 14 C s       :     3.193307  s :     3.193307
      pz      :     0.998338  p :     2.910851
      px      :     0.964108
      py      :     0.948405
      dz2     :     0.004878  d :     0.035228
      dxz     :     0.004026
      dyz     :     0.005872
      dx2y2   :     0.009272
      dxy     :     0.011179

 15 H s       :     0.869062  s :     0.869062
      pz      :     0.005191  p :     0.011473
      px      :     0.002136
      py      :     0.004146

 16 H s       :     0.860482  s :     0.860482
      pz      :     0.003041  p :     0.011663
      px      :     0.002575
      py      :     0.006047

 17 H s       :     0.867437  s :     0.867437
      pz      :     0.005022  p :     0.010970
      px      :     0.001819
      py      :     0.004129

 18 H s       :     0.841343  s :     0.841343
      pz      :     0.002799  p :     0.012702
      px      :     0.002736
      py      :     0.007167

 19 H s       :     0.668701  s :     0.668701
      pz      :     0.008561  p :     0.025021
[...]
18 H  pz              0.0       0.0       0.0       0.0       0.4       0.0
18 H  px              0.5       0.0       0.1       0.1       1.7       0.0
18 H  py              2.4       0.0       0.5       0.0      12.5       0.1
19 H  s               0.8       0.0       0.1       0.0       6.6       0.3
19 H  pz              0.5       0.0       0.1       0.0       2.3       0.1
19 H  px              2.0       0.0       0.7       0.0       4.5       0.1
19 H  py              0.4       0.2       0.0       0.1       6.0       0.3
20 H  s               0.1       1.6       2.1       0.1       0.0       2.0
20 H  pz              0.0       1.3       1.8       0.1       0.0       0.9
20 H  px              0.6       4.4       5.3       0.6       0.0       3.1
20 H  py              0.1       1.3       2.6       0.0       0.0       1.2
21 H  s               0.1       1.5       1.9       0.2       0.0       2.0
21 H  pz              0.1       1.2       1.6       0.1       0.0       0.9
21 H  px              0.9       4.1       4.4       0.4       0.0       3.4
21 H  py              0.1       1.2       2.2       0.1       0.2       0.7
22 H  s               0.2       0.5       0.4       0.0       0.0       2.5
22 H  pz              0.0       0.3       0.3       0.0       0.0       0.5
22 H  px              0.5       0.0       0.3       0.0       0.0       0.0
22 H  py              0.8       1.8       1.4       0.0       0.1       6.0
23 H  s               0.0       4.3       2.6       0.0       0.0       0.0
23 H  pz              0.0       4.9       3.1       0.0       0.0       0.0
23 H  px              0.0       5.5       3.1       0.2       0.0       0.0
23 H  py              0.0       0.5       0.4       0.0       0.0       0.0
24 H  s               0.1       4.9       2.5       0.0       0.0       0.0
24 H  pz              0.0       1.0       0.5       0.0       0.0       0.0
24 H  px              0.1       1.2       0.9       0.2       0.0       0.0
24 H  py              0.2      10.5       5.0       0.2       0.0       0.0
25 H  s               0.0       0.4       0.7       0.1       0.1       2.5
25 H  pz              0.1       0.1       0.1       0.0       0.0       0.1
25 H  px              0.1       1.4       2.2       0.4       0.2       4.6
25 H  py              0.6       0.1       0.7       0.0       0.1       1.8
26 H  s               6.7       0.0       0.3       2.0       0.0       0.0
26 H  pz              0.7       0.1       0.2       0.3       0.0       0.0
26 H  px              1.5       0.1       0.2       0.5       0.0       0.0
26 H  py             14.6       0.0       0.4       3.3       0.0       0.0



                      *****************************
                      * MAYER POPULATION ANALYSIS *
                      *****************************

  NA   - Mulliken gross atomic population
  ZA   - Total nuclear charge
  QA   - Mulliken gross atomic charge
  VA   - Mayer's total valence
  BVA  - Mayer's bonded valence
  FA   - Mayer's free valence

  ATOM       NA         ZA         QA         VA         BVA        FA
  0 O      8.4924     8.0000    -0.4924     2.0345     2.0345     0.0000
  1 O      8.5168     8.0000    -0.5168     2.0116     2.0116    -0.0000
  2 N      7.5397     7.0000    -0.5397     3.1942     3.1942    -0.0000
  3 N      7.6309     7.0000    -0.6309     2.8217     2.8217    -0.0000
  4 C      5.9938     6.0000     0.0062     3.9240     3.9240    -0.0000
  5 C      6.2426     6.0000    -0.2426     3.8646     3.8646    -0.0000
  6 C      5.9599     6.0000     0.0401     4.0511     4.0511    -0.0000
  7 C      5.9927     6.0000     0.0073     3.8316     3.8316     0.0000
  8 C      5.7766     6.0000     0.2234     3.8362     3.8362     0.0000
  9 C      5.9861     6.0000     0.0139     3.7612     3.7612    -0.0000
 10 C      6.1760     6.0000    -0.1760     3.8898     3.8898    -0.0000
 11 C      6.1311     6.0000    -0.1311     3.8680     3.8680    -0.0000
 12 C      5.4325     6.0000     0.5675     3.9292     3.9292     0.0000
 13 C      6.1362     6.0000    -0.1362     3.9147     3.9147     0.0000
 14 C      6.1413     6.0000    -0.1413     3.9374     3.9374     0.0000
 15 H      0.8787     1.0000     0.1213     0.9553     0.9553    -0.0000
 16 H      0.8707     1.0000     0.1293     0.9512     0.9512     0.0000
 17 H      0.8837     1.0000     0.1163     0.9506     0.9506    -0.0000
 18 H      0.8582     1.0000     0.1418     0.9530     0.9530     0.0000
 19 H      0.6907     1.0000     0.3093     0.8972     0.8972    -0.0000
 20 H      0.8958     1.0000     0.1042     0.9688     0.9688     0.0000
 21 H      0.8854     1.0000     0.1146     0.9541     0.9541    -0.0000
 22 H      0.9000     1.0000     0.1000     0.9576     0.9576    -0.0000
 23 H      0.7309     1.0000     0.2691     0.9064     0.9064    -0.0000
 24 H      0.7287     1.0000     0.2713     0.9078     0.9078    -0.0000
 25 H      0.8962     1.0000     0.1038     0.9568     0.9568     0.0000
 26 H      0.6326     1.0000     0.3674     0.8801     0.8801     0.0000

  Mayer bond orders larger than 0.100000
B(  0-O , 12-C ) :   1.1125 B(  0-O , 26-H ) :   0.8261 B(  1-O , 12-C ) :   1.8528 
B(  2-N ,  8-C ) :   1.0457 B(  2-N ,  9-C ) :   1.1034 B(  2-N , 19-H ) :   0.8735 
B(  3-N ,  7-C ) :   0.9975 B(  3-N , 23-H ) :   0.8985 B(  3-N , 24-H ) :   0.8948 
B(  4-C ,  5-C ) :   1.0013 B(  4-C ,  6-C ) :   1.2533 B(  4-C ,  9-C ) :   1.5498 
B(  5-C ,  7-C ) :   0.9599 B(  5-C , 15-H ) :   0.9332 B(  5-C , 16-H ) :   0.9375 
B(  6-C ,  8-C ) :   1.2777 B(  6-C , 10-C ) :   1.3494 B(  7-C , 12-C ) :   0.9263 
B(  7-C , 17-H ) :   0.9306 B(  8-C , 11-C ) :   1.3551 B(  9-C , 18-H ) :   0.9386 
B( 10-C , 13-C ) :   1.4717 B( 10-C , 20-H ) :   0.9282 B( 11-C , 14-C ) :   1.4707 
B( 11-C , 21-H ) :   0.9335 B( 13-C , 14-C ) :   1.3701 B( 13-C , 22-H ) :   0.9434 
B( 14-C , 25-H ) :   0.9422 

-------
TIMINGS
-------

Total SCF time: 0 days 0 hours 0 min 53 sec 

Total time                  ....      53.071 sec
Sum of individual times     ....      48.960 sec  ( 92.3%)

SCF preparation             ....       0.724 sec  (  1.4%)
Fock matrix formation       ....      47.669 sec  ( 89.8%)
  Startup                   ....       0.005 sec  (  0.0% of F)
  Split-RI-J                ....       3.513 sec  (  7.4% of F)
  Chain of spheres X        ....      40.077 sec  ( 84.1% of F)
  XC integration            ....       4.215 sec  (  8.8% of F)
    XC Preparation          ....       0.000 sec  (  0.0% of XC)
    Basis function eval.    ....       1.670 sec  ( 39.6% of XC)
    Density eval.           ....       1.076 sec  ( 25.5% of XC)
    XC-Functional eval.     ....       0.193 sec  (  4.6% of XC)
    XC-Potential eval.      ....       1.055 sec  ( 25.0% of XC)
  CPCM terms                ....       3.862 sec  (  8.1% of F)
Diagonalization             ....       0.000 sec  (  0.0%)
Density matrix formation    ....       0.019 sec  (  0.0%)
Total Energy calculation    ....       0.011 sec  (  0.0%)
Population analysis         ....       0.340 sec  (  0.6%)
Orbital Transformation      ....       0.041 sec  (  0.1%)
Orbital Orthonormalization  ....       0.000 sec  (  0.0%)
DIIS solution               ....       0.104 sec  (  0.2%)
  MO trafo                  ....       0.000 sec  (  0.0 % of DIIS)
  Orb grad                  ....       0.000 sec  (  0.0 % of DIIS)
  Energy W gradient         ....       0.000 sec  (  0.0 % of DIIS)
  DIIS error                ....       0.021 sec  ( 20.6 % of DIIS)
  DIIS work                 ....       0.059 sec  ( 57.0 % of DIIS)
  Form Q                    ....       0.000 sec  (  0.0 % of DIIS)
  Form QpQm                 ....       0.000 sec  (  0.0 % of DIIS)
  Exp/Cayley                ....       0.000 sec  (  0.0 % of DIIS)
  Orb update                ....       0.000 sec  (  0.0 % of DIIS)
  Wake-sleep                ....       0.003 sec  (  2.8 % of DIIS)
SOSCF solution              ....       0.053 sec  (  0.1%)
  MO trafo                  ....       0.029 sec  ( 54.8 % of SOSCF)
  Orb grad                  ....       0.001 sec  (  2.3 % of SOSCF)
  Rot update                ....       0.002 sec  (  3.5 % of SOSCF)
  Step                      ....       0.019 sec  ( 34.7 % of SOSCF)
Finished LeanSCF after  53.2 sec

Maximum memory used throughout the entire LEANSCF-calculation: 47.6 MB


-------------------------------------------------------------------------------
                          DFT DISPERSION CORRECTION                            
                                                                               
                              DFTD3 V3.1  Rev 1                                
                          USING Becke-Johnson damping                          
-------------------------------------------------------------------------------
The B3LYP functional is recognized
Active option DFTDOPT                   ...         4   

molecular C6(AA) [au] = 7881.806146 


            DFT-D V3
 parameters
 s6 scaling factor         :     1.0000 
 a1 scaling factor         :     0.3981 
 s8 scaling factor         :     1.9889 
 a2 scaling factor         :     4.4211 
 ad hoc parameters k1-k3   :    16.0000     1.3333    -4.0000 

 Edisp/kcal,au: -34.687604502472  -0.055278210507 
 E6   /kcal   : -16.396174329 
 E8   /kcal   : -18.291430173 
 % E8         :  52.731892086 

-------------------------   ----------------
Dispersion correction           -0.055278211
-------------------------   ----------------


-------------------------   --------------------
FINAL SINGLE POINT ENERGY      -686.047069582160
-------------------------   --------------------

                                *** OPTIMIZATION RUN DONE ***



           ************************************************************
           *        Program running with 2 parallel MPI-processes     *
           *              working on a common directory               *
           ************************************************************

------------------------------------------------------------------------------
                              ORCA PROPERTY CALCULATIONS
------------------------------------------------------------------------------

GBWName                                 ... /kaggle/working/Trp-1/Trp_InterFrag.gbw
Number of atoms                         ...     27
Number of basis functions               ...    270
Max core memory                         ...   3000 MB

Electric properties:
Dipole moment                           ... YES
Quadrupole moment                       ...  NO
Static polarizability (Dipole/Dipole)   ...  NO
Static polarizability (Dipole/Quad.)    ...  NO
Static polarizability (Quad./Quad.)     ...  NO
Static polarizability (Velocity)        ...  NO
Static hyperpolarizability              ...  NO

Atomic electric properties:
Dipole moment                           ...  NO
Quadrupole moment                       ...  NO
Static polarizability                   ...  NO

Choice of electric origin               ... Center of mass
Position of electric origin             ...     0.209549    -0.032773     0.043109

General magnetic properties:
Magnetizability                         ...  NO

EPR properties:
g-Tensor (aka g-matrix)                 ...  NO
Zero-Field splitting spin-orbit         ...  NO
Zero-field splitting spin-spin          ...  NO
Hyperfine couplings                     ...  NO (   0 nuclei)
Quadrupole couplings                    ...  NO (   0 nuclei)
Contact density                         ...  NO (   0 nuclei)

NMR properties:
Chemical shifts                         ...  NO (   0 nuclei)
Spin-rotation constants                 ...  NO (   0 nuclei)
Spin-spin couplings                     ...  NO (   0 nuclei,    0 pairs)

Choice of magnetic origin               ... GIAO
Position of magnetic origin             ...     0.000000     0.000000     0.000000

Properties with geometric perturbations:
SCF Hessian                             ...  NO
IR spectrum                             ...  NO
VCD spectrum                            ...  NO
X-ray spectroscopy properties:
SCF XES/XAS/RIXS spectra                ...  NO

SCF SOC stabilization energy            ...  NO
Diagonal Born-Oppenheimer correction    ...  NO

-------------
DIPOLE MOMENT
-------------

Method             : SCF
Type of density    : Electron Density
Multiplicity       :   1
Irrep              :   0
Energy             :  -685.9917913716527664 Eh
Basis              : AO
                                X                 Y                 Z
Electronic contribution:     -2.428961575      -0.669408818       2.454326006
Nuclear contribution   :      1.955894270       2.976971330      -1.073244346
                        -----------------------------------------
Total Dipole Moment    :     -0.473067305       2.307562512       1.381081660
                        -----------------------------------------
Magnitude (a.u.)       :      2.730572097
Magnitude (Debye)      :      6.940562695



--------------------
Rotational spectrum 
--------------------
 
Rotational constants in cm-1:             0.035834             0.015075             0.012197 
Rotational constants in MHz :          1074.268555           451.946642           365.653332 

Dipole components along the rotational axes: 
x,y,z [a.u.] :    -0.520512    -2.289480     1.394049 
x,y,z [Debye]:    -1.323036    -5.819395     3.543392 

 

Dipole moment calculation done in   0.0 sec 

Maximum memory used throughout the entire PROP-calculation: 16.8 MB

--------------------------------
SUGGESTED CITATIONS FOR THIS RUN
--------------------------------

Below you find a list of papers that are relevant to this ORCA run
We neither can nor want to force you to cite these papers, but we appreciate if you do
You receive ORCA, which is the product of decades of hard work by many enthusiastic individuals, for free
The only thing we kindly ask in return is that you cite our papers,
We deeply appreciate it, if you show your appreciation for ORCA by not just citing the generic ORCA reference.

Please note that relegating all ORCA citations to the supporting information does *not* help us.
SI sections are not indexed - citations you put there will not count into any citation statistics
But we need these citations in order to attract the funding resources that allow us to do what we are doing

Therefore, if you are a happy ORCA user, please consider citing a few of the papers listed below in the main body of your paper

In addition to the list printed below, the program has created the file /kaggle/working/Trp-1/Trp_InterFrag.bibtex that contains the list in bibtex format
You can import this file easily into all common literature databanks and citation aid programs

It goes without saying that in many instances, there are alternative algorithms to achieve similar
results as the ones you have gotten from ORCA. It is, of course, also the case that in some instances
ORCA just re-implements algorithms worked out by others. We are fully aware of that and we are also
fully appreciative of our colleagues work. Hence this citation list should not be read as indicating
that the listed papers, which are focused on our own work, are the only ones worth citing. It simply
meant to make it easier for users to cite ORCA specific papers. It is not a substitute for doing your
own literature research and citing the relevant literature in a scientifically appropriate manner.

List of essential papers. We consider these as the minimum necessary citations

  1. Neese, F.
     Software update: the ORCA program system, version 6.0
     WIRES Comput. Molec. Sci. 2025 15(1), e70019
     doi.org/10.1002/wcms.70019

List of papers to cite with high priority. The work reported in these papers was absolutely
necessary for this run to complete.
Our perspective: the developers of density functionals and basis sets usually get cited in chemistry papers
Good! But without the algorithms to do something with them, the functionals or basis sets would not do anything.
Hence, in our opinion, the algorithm design and method developments papers are equally worthy of getting cited

  1. Neese, F.
     An improvement of the resolution of the identity approximation for the formation of the Coulomb matrix
     J. Comp. Chem. 2003 24(14), 1740-1747
     doi.org/10.1002/jcc.10318
  2. Neese, F.; Wennmohs, F.; Hansen, A.; Becker, U.
     Efficient, approximate and parallel Hartree-Fock and hybrid DFT calculations. A 'chain-of-spheres' algorithm for the Hartree-Fock exchange
     Chem. Phys. 2009 356(1-3), 98-109
     doi.org/10.1016/j.chemphys.2008.10.036
  3. Grimme, S.; Antony, J.; Ehrlich, S.; Krieg, H.
     A consistent and accurate ab initio parametrization of density functional dispersion correction (DFT-D) for the 94 elements H-Pu
     J. Chem. Phys. 2010 132 , 154104
     doi.org/10.1063/1.3382344
  4. Grimme, S.; Ehrlich, S.; Goerigk, L.
     Effect of the damping function in dispersion corrected density functional theory
     J. Comput. Chem. 2011 32(7), 1456-1465
     doi.org/10.1002/jcc.21759
  5. Garcia-Rates, M.; Neese, F.
     Effect of the Solute Cavity on the Solvation Energy and its Derivatives within the Framework of the Gaussian Charge Scheme
     J. Comput. Chem. 2020 41 , 922-939
     doi.org/10.1002/jcc.26139
  6. Helmich-Paris, B.; de Souza, B.; Neese, F.; Izsák, R.
     An improved chain of spheres for exchange algorithm
     J. Chem. Phys. 2021 155(10), 104109
     doi.org/10.1063/5.0058766
  7. Neese, F.
     The SHARK Integral Generation and Digestion System
     J. Comp. Chem. 2022 44(3), 381
     doi.org/10.1002/jcc.26942

List of suggested additional citations. These are papers that are important in the 'surrounding' of 
of this run, or papers that preceded the highly important papers. If you like your results we are grateful for a citation.

  1. Izsak, R.; Neese, F.
     An overlap fitted chain of spheres exchange method
     J. Chem. Phys. 2011 135 , 144105
     doi.org/10.1063/1.3646921
  2. Izsak, R.; Hansen, A.; Neese, F.
     The resolution of identity and chain of spheres approximations for the LPNO-CCSD singles Fock term
     Molec. Phys. 2012 110 , 2413-2417
     doi.org/10.1080/00268976.2012.687466
  3. Neese, F.
     The ORCA program system
     WIRES Comput. Molec. Sci. 2012 2(1), 73-78
     doi.org/10.1002/wcms.81
  4. Izsak, R.; Neese, F.; Klopper, W.
     Robust fitting techniques in the chain of spheres approximation to the Fock exchange: The role of the complementary space
     J. Chem. Phys. 2013 139 , 
     doi.org/10.1063/1.4819264
  5. Neese, F.
     Software update: the ORCA program system, version 4.0
     WIRES Comput. Molec. Sci. 2018 8(1), 1-6
     doi.org/10.1002/wcms.1327
  6. Neese, F.; Wennmohs, F.; Becker, U.; Riplinger, C.
     The ORCA quantum chemistry program package
     J. Chem. Phys. 2020 152(22), 224108
     doi.org/10.1063/5.0004608
  7. Neese, F.
     Software update: The ORCA program system—Version 5.0
     WIRES Comput. Molec. Sci. 2022 12(1), e1606
     doi.org/10.1002/wcms.1606

List of optional additional citations

  1. Neese, F.
     Approximate second-order SCF convergence for spin unrestricted wavefunctions
     Chem. Phys. Lett. 2000 325(1-3), 93-98
     doi.org/10.1016/s0009-2614(00)00662-x

Timings for individual modules:

Sum of individual times          ...      934.046 sec (=  15.567 min)
Startup calculation              ...       29.919 sec (=   0.499 min)   3.2 %
SCF iterations                   ...      585.360 sec (=   9.756 min)  62.7 %
Property calculations            ...        0.442 sec (=   0.007 min)   0.0 %
SCF Gradient evaluation          ...      318.225 sec (=   5.304 min)  34.1 %
Geometry relaxation              ...        0.101 sec (=   0.002 min)   0.0 %
                             ****ORCA TERMINATED NORMALLY****
TOTAL RUN TIME: 0 days 0 hours 15 minutes 38 seconds 88 msec
