
                                 *****************
                                 * O   R   C   A *
                                 *****************

                                            #,                                       
                                            ###                                      
                                            ####                                     
                                            #####                                    
                                            ######                                   
                                           ########,                                 
                                     ,,################,,,,,                         
                               ,,#################################,,                 
                          ,,##########################################,,             
                       ,#########################################, ''#####,          
                    ,#############################################,,   '####,        
                  ,##################################################,,,,####,       
                ,###########''''           ''''###############################       
              ,#####''   ,,,,##########,,,,          '''####'''          '####       
            ,##' ,,,,###########################,,,                        '##       
           ' ,,###''''                  '''############,,,                           
         ,,##''                                '''############,,,,        ,,,,,,###''
      ,#''                                            '''#######################'''  
     '                                                          ''''####''''         
             ,#######,   #######,   ,#######,      ##                                
            ,#'     '#,  ##    ##  ,#'     '#,    #''#        ,####,    ,#,          
            ##       ##  ##   ,#'  ##            #'  '#       #'       ,# #          
            ##       ##  #######   ##           ,######,      #####,      #          
            '#,     ,#'  ##    ##  '#,     ,#' ,#      #,     #,   #      #          
             '#######'   ##     ##  '#######'  #'      '#     '####' #    #          



                #########################################################
                #                        -***-                          #
                #          Department of theory and spectroscopy        #
                #                                                       #
                #                      Frank Neese                      #
                #                                                       #
                #     Directorship, Architecture, Infrastructure        #
                #                    SHARK, DRIVERS                     #
                #        Core code/Algorithms in most modules           #
                #                                                       #
                #        Max Planck Institute fuer Kohlenforschung      #
                #                Kaiser Wilhelm Platz 1                 #
                #                 D-45470 Muelheim/Ruhr                 #
                #                      Germany                          #
                #                                                       #
                #                  All rights reserved                  #
                #                        -***-                          #
                #########################################################


                         Program Version 6.1.1  -  RELEASE   -
                                (GIT: $487d211c$)
                          ($2025-11-21 10:33:24 +0100$)
                                                                         
                                  - NO-DMRG VERSION -                    
                                                                         


 With contributions from (in alphabetic order):
[Max-Planck-Institut fuer Kohlenforschung]                               
  Daniel Aravena         : Magnetic Suceptibility                        
  Michael Atanasov       : Ab Initio Ligand Field Theory (pilot matlab implementation)
  Alexander A. Auer      : GIAO ZORA, VPT2 properties, NMR spectrum      
  Ute Becker             : All parallelization in ORCA, NUMFREQ, NUMCALC 
  Giovanni Bistoni       : ED, misc. LED, open-shell LED, HFLD           
  Dmytro Bykov           : pre 5.0 version of the SCF Hessian            
  Marcos Casanova-Páez   : Triplet and SCS-CIS(D). UHF-(DLPNO)-IP/EA/STEOM-CCSD. UHF-CVS-IP/STEOM-CCSD   
  Vijay G. Chilkuri      : MRCI spin determinant printing, contributions to CSF-ICE 
  Pauline Colinet        : FMM embedding                                 
  Dipayan Datta          : RHF DLPNO-CCSD density                        
  Achintya Kumar Dutta   : EOM-CC, STEOM-CC                              
  Nicolas Foglia         : Exact transition moments, OPA infrastructure, MCD improvements    
  Dmitry Ganyushin       : Spin-Orbit,Spin-Spin,Magnetic field MRCI      
  Miquel Garcia-Rates    : C-PCM and meta-GGA Hessian, CCSD/C-PCM, Gaussian charge scheme 
  Tiago L. C. Gouveia    : GS-ROHF, GS-ROCIS                             
  Yang Guo               : DLPNO-NEVPT2, F12-NEVPT2, CIM, IAO-localization        
  Andreas Hansen         : Spin unrestricted coupled pair/coupled cluster methods 
  Ingolf Harden          : AUTO-CI MPn and infrastructure                
  Benjamin Helmich-Paris : MC-RPA, TRAH-(SCF,CASSCF), AVAS, COSX integrals, SCF dyn. polar., MC-PDFT, srDFT 
  Lee Huntington         : MR-EOM, pCC                                   
  Robert Izsak           : Overlap fitted RIJCOSX, COSX-SCS-MP3, EOM     
  Riya Kayal             : Wick's Theorem for AUTO-CI, AUTO-CI UHF-CCSDT 
  Emily Kempfer          : AUTO-CI RHF CISDT and CCSDT, approximate NEVPT4
  Christian Kollmar      : KDIIS, OOCD, Brueckner-CCSD(T), CCSD density, CASPT2, CASPT2-K, improved NEVPT2 
  Axel Koslowski         : Symmetry handling                             
  Simone Kossmann        : meta-GGA functionals, TD-DFT gradient, OOMP2, (MP2 Hessian; deprecated post 5.0) 
  Lucas Lang             : DCDCAS, Hyperfine gauge corrections, ICE-SOC+SSC
  Marvin Lechner         : AUTO-CI (C++ implementation), FIC-MRCC        
  Spencer Leger          : CASSCF response                               
  Dagmar Lenk            : GEPOL surface, SMD, ORCA-2-JSON               
  Dimitrios Liakos       : Extrapolation schemes; Compound Job, Property file
  Dimitrios Manganas     : Further ROCIS development; embedding schemes. LFT, Crystal Embedding 
  Dimitrios Pantazis     : SARC Basis sets                               
  Anastasios Papadopoulos: AUTO-CI, single reference methods and gradients 
  Taras Petrenko         : pre 6.0 DFT Hessian and TD-DFT gradient,  ECA, NRVS 
  Petra Pikulova         : Analytic Raman intensities                    
  Peter Pinski           : DLPNO-MP2, DLPNO-MP2 Gradient                 
  Shashank Vittal Rao    : ES-AILFT, MagRelax                            
  Christoph Reimann      : Effective Core Potentials                     
  Marius Retegan         : Local ZFS, SOC                                
  Christoph Riplinger    : Optimizer, TS searches, QM/MM, DLPNO-CCSD(T), (RO)-DLPNO pert. Triples 
  Michael Roemelt        : Original ROCIS implementation, recursive CI coupling coefficients
  Masaaki Saitow         : Open-shell DLPNO-CCSD energy and density      
  Barbara Sandhoefer     : DKH picture change effects                    
  Yorick L. A. Schmerwitz: GMF and freeze-and-release deltaSCF, NEB S-IDPP initial path                    
  Kantharuban Sivalingam : CASSCF convergence/infrastructure, NEVPT2, NEVPT3, NEVPT4(SD), FIC-MRCI and CEPA variants
  Bernardo de Souza      : ESD, SOC TD-DFT                               
  Georgi L. Stoychev     : AutoAux, RI-MP2 NMR, DLPNO-MP2 response, X2C  
  Van Anh Tran           : RI-MP2 g-tensors                              
  Willem Van den Heuvel  : Paramagnetic NMR                              
  Zikuan Wang            : NOTCH, Electric field optimization            
  Frank Wennmohs         : Technical directorship and infrastructure     
  Hang Xu                : AUTO-CI-Response properties                   
                                                                         
[FACCTs GmbH]                                                            
  Markus Bursch, Nicolas Foglia, Miquel Garcia-Rates, Ingolf Harden, Hagen Neugebauer, Anastasios Papadopoulos, 
  Christoph Riplinger, Bernardo de Souza, Georgi L. Stoychev                                                    
                                                                 
  APM, various basis sets, CI-OPT, improved COSX, DLPNO-Multilevel,           
  DOCKER, DRACO, updates on ESD, Fragmentator, GOAT, IRC, LR-CPCM, L-BFGS, MBIS, meta-GGA TD-DFT gradient, ML-optimized integration grids, 
  MM, NACMEs, nearIR, NEB, NEB-TS, NL-DFT gradient (VV10), 2- and 3-layer-ONIOM, interface openCOSMO-RS, QMMM,   
  Crystal-QMMM, RESP, rigid body optimization, SF, symmetry and pop. for TD-DFT, various functionals, SOLVATOR                                   
                                                                         
[Other institutions]                                                     
  V. Asgeirsson          : NEB                                           
  Christoph Bannwarth    : sTDA-DFT, sTD-DFT, PBEh-3c, B97-3c, D3        
  Giovanni Bistoni       : ETS/NOCV, ADLD/ADEX, COVALED                  
  Martin Brehm           : Molecular dynamics                            
  Ronald Cardenas        : ETS/NOCV                                      
  Martina Colucci        : COVALED                                       
  Sebastian Ehlert       : rSCAN, r2SCAN, r2SCAN-3c, D4, dhf basis sets  
  Marvin Friede          : D4 for Fr, Ra, Ac-Lr                          
  Lars Goerigk           : TD-DFT with DH, B97 family of functionals     
  Stefan Grimme          : VdW corrections, initial TS optimization, DFT functionals, gCP, sTDA/sTD-DF 
  Waldemar Hujo          : DFT-NL                                        
  H. Jonsson             : NEB                                           
  Holger Kruse           : gCP                                           
  Marcel Mueller         : wB97X-3c, vDZP basis set                      
  Hagen Neugebauer       : wr2SCAN, Native XTB                           
  Gianluca Regni         : ADLD/ADEX                                     
  Tobias Risthaus        : pre 6.0 range-separated hybrid DFT and stability analysis
  Lukas Wittmann         : regularized MP2, r2SCAN double-hybrids, wr2SCAN        
                                                                         
We gratefully acknowledge several colleagues who have allowed us to      
interface, adapt or use parts of their codes:                            
  Ed Valeev, F. Pavosevic, A. Kumar             : LibInt (2-el integral package), F12 methods 
  Garnet Chan, S. Sharma, J. Yang, R. Olivares  : DMRG                   
  Ulf Ekstrom                                   : XCFun DFT Library      
  Mihaly Kallay                                 : mrcc  (arbitrary order and MRCC methods)
  Frank Weinhold                                : gennbo (NPA and NBO analysis)           
  Simon Mueller                                 : openCOSMO-RS                            
  Christopher J. Cramer and Donald G. Truhlar   : smd solvation model                     
  S Lehtola, MJT Oliveira, MAL Marques          : LibXC Library                           
  Liviu Ungur et al                             : ANISO software                          


 Your calculation uses the libint2 library for the computation of 2-el integrals
 For citations please refer to: http://libint.valeyev.net

 Your ORCA version has been built with support for libXC version: 7.0.0
 For citations please refer to: https://libxc.gitlab.io

 This ORCA versions uses:
   CBLAS   interface :  Fast vector & matrix operations
   LAPACKE interface :  Fast linear algebra routines
   SCALAPACK package :  Parallel linear algebra routines
   Shared memory     :  Shared parallel matrices
   BLAS/LAPACK       :  OpenBLAS 0.3.29  USE64BITINT DYNAMIC_ARCH NO_AFFINITY SkylakeX SINGLE_THREADED
        Core in use  :  SkylakeX
   Copyright (c) 2011-2014, The OpenBLAS Project


  ***********************************
  * Starting time: Tue Mar 24 17:34:10 2026
  * Host name:     a1c4cf6a54c6
  * Process ID:    607
  * Working dir.:  /kaggle/working
  ***********************************

NOTE: MaxCore=3000 MB was set to SCF,MP2,MDCI,CIPSI,MRCI,RASCI and CIS
      => If you want to overwrite this, your respective input block should be placed after the MaxCore statement
Your calculation utilizes the atom-pairwise dispersion correction
with the Becke-Johnson damping scheme (D3BJ)


Warning: RI is on but no J-basis has been assigned. Assigning Def2/J (nothing to worry about!)
================================================================================

----- Orbital basis set information -----
Your calculation utilizes the basis: 6-31G(d,p)
   H-He, Li-Ne : W. J. Hehre, R. Ditchfield and J.A. Pople, J. Chem. Phys. 56, 2257 (1972).
                 Note: He and Ne are unpublished basis sets taken from the Gaussian program.
                 Note: Li and B from J. D. Dill and J. A. Pople, J. Chem. Phys. 62, 2921 (1975).
   Na - Ar     : M. M. Francl, W. J. Pietro, W. J. Hehre, J. S. Binkley, M. S. Gordon, 
                 D. J. DeFrees and J. A. Pople, J. Chem. Phys. 77, 3654 (1982).
   K - Zn      : V. A. Rassolov, J. A. Pople, M. A. Ratner, and T. L. Windus, J. Chem. Phys. 109, 1223 (1998).

----- AuxJ basis set information -----
Your calculation utilizes the auxiliary basis: def2/J
   H-Rn: F. Weigend, Phys. Chem. Chem. Phys. 8, 1057 (2006).
   Fr-Lr: K. Eichkorn, F. Weigend, O. Treutler, R. Ahlrichs; Theor. Chem. Acc. 97, 119 (1997).

================================================================================
                                        WARNINGS
                       Please study these warnings very carefully!
================================================================================


================================================================================
                                       INPUT FILE
================================================================================
NAME = /kaggle/working/Phe-F-2/Phe-F_InterFrag.inp
|  1> 
|  2> !RKS B3LYP 6-31G(d,p) TightSCF D3BJ # def2-TZVPP
|  3> 
|  4> %pal nprocs 2 end
|  5> %maxcore 3000
|  6> 
|  7> %elprop
|  8>   Polar 1      # polarizability via CP-SCF
|  9> end
| 10> 
| 11> %output
| 12>   PrintLevel Normal
| 13>   Print[ P_OrbEn ] 2
| 14> end
| 15> 
| 16> *xyz 0 1
| 17>   F      4.043830   -0.940009   -0.374781
| 18>   O     -1.510093   -1.224641   -1.411304
| 19>   O     -2.826842   -1.368274    0.413537
| 20>   N     -3.441641    1.354822   -0.069043
| 21>   C     -1.059456    1.189139    0.768201
| 22>   C     -2.103216    0.817844   -0.322584
| 23>   C      0.319556    0.640401    0.497813
| 24>   C      0.725642   -0.582473    1.050367
| 25>   C      1.199528    1.313637   -0.361363
| 26>   C     -2.206252   -0.693044   -0.392781
| 27>   C      1.979258   -1.124378    0.762943
| 28>   C      2.456922    0.789251   -0.661925
| 29>   C      2.821436   -0.423994   -0.090913
| 30>   H     -1.436335    0.821088    1.728696
| 31>   H     -1.032086    2.282784    0.815701
| 32>   H     -1.744581    1.185044   -1.287108
| 33>   H      0.052447   -1.118980    1.713106
| 34>   H      0.899720    2.262019   -0.798483
| 35>   H     -3.345097    2.355994    0.093961
| 36>   H     -3.763939    0.963289    0.815902
| 37>   H      2.302910   -2.067466    1.190273
| 38>   H      3.146340    1.305401   -1.321551
| 39>   H     -1.578554   -2.196054   -1.350563
| 40> 
| 41> *
| 42> 
| 43>                          ****END OF INPUT****
================================================================================

                       ****************************
                       * Single Point Calculation *
                       ****************************

---------------------------------
CARTESIAN COORDINATES (ANGSTROEM)
---------------------------------
  F      4.043830   -0.940009   -0.374781
  O     -1.510093   -1.224641   -1.411304
  O     -2.826842   -1.368274    0.413537
  N     -3.441641    1.354822   -0.069043
  C     -1.059456    1.189139    0.768201
  C     -2.103216    0.817844   -0.322584
  C      0.319556    0.640401    0.497813
  C      0.725642   -0.582473    1.050367
  C      1.199528    1.313637   -0.361363
  C     -2.206252   -0.693044   -0.392781
  C      1.979258   -1.124378    0.762943
  C      2.456922    0.789251   -0.661925
  C      2.821436   -0.423994   -0.090913
  H     -1.436335    0.821088    1.728696
  H     -1.032086    2.282784    0.815701
  H     -1.744581    1.185044   -1.287108
  H      0.052447   -1.118980    1.713106
  H      0.899720    2.262019   -0.798483
  H     -3.345097    2.355994    0.093961
  H     -3.763939    0.963289    0.815902
  H      2.302910   -2.067466    1.190273
  H      3.146340    1.305401   -1.321551
  H     -1.578554   -2.196054   -1.350563

----------------------------
CARTESIAN COORDINATES (A.U.)
----------------------------
  NO LB      ZA    FRAG     MASS         X           Y           Z
   0 F     9.0000    0    18.998    7.641731   -1.776360   -0.708233
   1 O     8.0000    0    15.999   -2.853662   -2.314236   -2.666978
   2 O     8.0000    0    15.999   -5.341957   -2.585663    0.781472
   3 N     7.0000    0    14.007   -6.503759    2.560243   -0.130472
   4 C     6.0000    0    12.011   -2.002082    2.247147    1.451690
   5 C     6.0000    0    12.011   -3.974502    1.545501   -0.609595
   6 C     6.0000    0    12.011    0.603873    1.210183    0.940730
   7 C     6.0000    0    12.011    1.371265   -1.100714    1.984906
   8 C     6.0000    0    12.011    2.266779    2.482414   -0.682877
   9 C     6.0000    0    12.011   -4.169212   -1.309663   -0.742249
  10 C     6.0000    0    12.011    3.740256   -2.124766    1.441753
  11 C     6.0000    0    12.011    4.642910    1.491468   -1.250857
  12 C     6.0000    0    12.011    5.331741   -0.801233   -0.171801
  13 H     1.0000    0     1.008   -2.714280    1.551631    3.266762
  14 H     1.0000    0     1.008   -1.950360    4.313837    1.541451
  15 H     1.0000    0     1.008   -3.296780    2.239409   -2.432282
  16 H     1.0000    0     1.008    0.099110   -2.114566    3.237301
  17 H     1.0000    0     1.008    1.700224    4.274596   -1.508914
  18 H     1.0000    0     1.008   -6.321317    4.452183    0.177561
  19 H     1.0000    0     1.008   -7.112814    1.820352    1.541831
  20 H     1.0000    0     1.008    4.351869   -3.906945    2.249290
  21 H     1.0000    0     1.008    5.945721    2.466850   -2.497369
  22 H     1.0000    0     1.008   -2.983035   -4.149941   -2.552194

--------------------------------
INTERNAL COORDINATES (ANGSTROEM)
--------------------------------
 F      0   0   0     0.000000000000     0.00000000     0.00000000
 O      1   0   0     5.656982941010     0.00000000     0.00000000
 O      2   1   0     2.254884263764   115.35568793     0.00000000
 N      3   2   1     2.833039550027    85.85068635   104.58037936
 C      4   3   2     2.530461172642    71.11991512   288.61327067
 C      4   3   2     1.464243795203    58.57625082   323.96780245
 C      5   4   3     1.508607689007   145.59332927    62.06356818
 C      7   5   4     1.402013759629   120.75632581   265.48070408
 C      7   5   4     1.402063062582   120.58952160    82.53505603
 C      3   2   1     1.221153642309    29.96270401    85.58087993
 C      8   7   5     1.395645606971   121.17635761   177.39987928
 C      9   7   5     1.395119301019   121.14479220   182.60999242
 C      1   2   3     1.356871258773    34.20705102   308.60847363
 H      5   4   3     1.095467920236    89.32519697   295.10622739
 H      5   4   3     1.095018151870    88.42356512   187.25288722
 H      6   4   3     1.092593908916   109.24723647   135.44153353
 H      8   7   5     1.086395071415   119.45134790   357.48310768
 H      9   7   5     1.086456234364   119.50545553     2.83601422
 H      4   3   2     1.018938870363   153.71737478   260.03513260
 H      4   3   2     1.019951834117    63.37201687   189.75146114
 H     11   8   7     1.084793308307   121.62962660   179.68910371
 H     12   9   7     1.084810795070   121.66426146   180.31276648
 H      2   1   3     0.975714914394    96.17545656   276.94949908

---------------------------
INTERNAL COORDINATES (A.U.)
---------------------------
 F      0   0   0     0.000000000000     0.00000000     0.00000000
 O      1   0   0    10.690148502774     0.00000000     0.00000000
 O      2   1   0     4.261113722203   115.35568793     0.00000000
 N      3   2   1     5.353668876118    85.85068635   104.58037936
 C      4   3   2     4.781878608815    71.11991512   288.61327067
 C      4   3   2     2.767019766227    58.57625082   323.96780245
 C      5   4   3     2.850855375752   145.59332927    62.06356818
 C      7   5   4     2.649422041687   120.75632581   265.48070408
 C      7   5   4     2.649515210766   120.58952160    82.53505603
 C      3   2   1     2.307645951404    29.96270401    85.58087993
 C      8   7   5     2.637387977185   121.17635761   177.39987928
 C      9   7   5     2.636393403074   121.14479220   182.60999242
 C      1   2   3     2.564115078071    34.20705102   308.60847363
 H      5   4   3     2.070134357743    89.32519697   295.10622739
 H      5   4   3     2.069284418707    88.42356512   187.25288722
 H      6   4   3     2.064703263442   109.24723647   135.44153353
 H      8   7   5     2.052989158216   119.45134790   357.48310768
 H      9   7   5     2.053104739439   119.50545553     2.83601422
 H      4   3   2     1.925515412193   153.71737478   260.03513260
 H      4   3   2     1.927429636271    63.37201687   189.75146114
 H     11   8   7     2.049962264611   121.62962660   179.68910371
 H     12   9   7     2.049995309803   121.66426146   180.31276648
 H      2   1   3     1.843833972987    96.17545656   276.94949908

---------------------
BASIS SET INFORMATION
---------------------
There are 5 groups of distinct atoms

 Group   1 Type F   : 10s4p1d contracted to 3s2p1d pattern {631/31/1}
 Group   2 Type O   : 10s4p1d contracted to 3s2p1d pattern {631/31/1}
 Group   3 Type N   : 10s4p1d contracted to 3s2p1d pattern {631/31/1}
 Group   4 Type C   : 10s4p1d contracted to 3s2p1d pattern {631/31/1}
 Group   5 Type H   : 4s1p contracted to 2s1p pattern {31/1}

Atom   0F    basis set group =>   1
Atom   1O    basis set group =>   2
Atom   2O    basis set group =>   2
Atom   3N    basis set group =>   3
Atom   4C    basis set group =>   4
Atom   5C    basis set group =>   4
Atom   6C    basis set group =>   4
Atom   7C    basis set group =>   4
Atom   8C    basis set group =>   4
Atom   9C    basis set group =>   4
Atom  10C    basis set group =>   4
Atom  11C    basis set group =>   4
Atom  12C    basis set group =>   4
Atom  13H    basis set group =>   5
Atom  14H    basis set group =>   5
Atom  15H    basis set group =>   5
Atom  16H    basis set group =>   5
Atom  17H    basis set group =>   5
Atom  18H    basis set group =>   5
Atom  19H    basis set group =>   5
Atom  20H    basis set group =>   5
Atom  21H    basis set group =>   5
Atom  22H    basis set group =>   5
---------------------------------
AUXILIARY/J BASIS SET INFORMATION
---------------------------------
There are 5 groups of distinct atoms

 Group   1 Type F   : 12s5p4d2f1g contracted to 6s4p3d1f1g pattern {711111/2111/211/2/1}
 Group   2 Type O   : 12s5p4d2f1g contracted to 6s4p3d1f1g pattern {711111/2111/211/2/1}
 Group   3 Type N   : 12s5p4d2f1g contracted to 6s4p3d1f1g pattern {711111/2111/211/2/1}
 Group   4 Type C   : 12s5p4d2f1g contracted to 6s4p3d1f1g pattern {711111/2111/211/2/1}
 Group   5 Type H   : 5s2p1d contracted to 3s1p1d pattern {311/2/1}

Atom   0F    basis set group =>   1
Atom   1O    basis set group =>   2
Atom   2O    basis set group =>   2
Atom   3N    basis set group =>   3
Atom   4C    basis set group =>   4
Atom   5C    basis set group =>   4
Atom   6C    basis set group =>   4
Atom   7C    basis set group =>   4
Atom   8C    basis set group =>   4
Atom   9C    basis set group =>   4
Atom  10C    basis set group =>   4
Atom  11C    basis set group =>   4
Atom  12C    basis set group =>   4
Atom  13H    basis set group =>   5
Atom  14H    basis set group =>   5
Atom  15H    basis set group =>   5
Atom  16H    basis set group =>   5
Atom  17H    basis set group =>   5
Atom  18H    basis set group =>   5
Atom  19H    basis set group =>   5
Atom  20H    basis set group =>   5
Atom  21H    basis set group =>   5
Atom  22H    basis set group =>   5


           ************************************************************
           *        Program running with 2 parallel MPI-processes     *
           *              working on a common directory               *
           ************************************************************
------------------------------------------------------------------------------
                             ORCA STARTUP CALCULATIONS
                           -- RI-GTO INTEGRALS CHOSEN --
------------------------------------------------------------------------------
------------------------------------------------------------------------------
                   ___                                                        
                  /   \      - P O W E R E D   B Y -                         
                 /     \                                                     
                 |  |  |   _    _      __       _____    __    __             
                 |  |  |  | |  | |    /  \     |  _  \  |  |  /  |          
                  \  \/   | |  | |   /    \    | | | |  |  | /  /          
                 / \  \   | |__| |  /  /\  \   | |_| |  |  |/  /          
                |  |  |   |  __  | /  /__\  \  |    /   |      \           
                |  |  |   | |  | | |   __   |  |    \   |  |\   \          
                \     /   | |  | | |  |  |  |  | |\  \  |  | \   \       
                 \___/    |_|  |_| |__|  |__|  |_| \__\ |__|  \__/        
                                                                              
                      - O R C A' S   B I G   F R I E N D -                    
                                      &                                       
                       - I N T E G R A L  F E E D E R -                       
                                                                              
 v1 FN, 2020, v2 2021, v3 2022-2024                                           
------------------------------------------------------------------------------


----------------------
SHARK INTEGRAL PACKAGE
----------------------

Number of atoms                             ...     23
Number of basis functions                   ...    232
Number of shells                            ...    108
Maximum angular momentum                    ...      2
Integral batch strategy                     ... SHARK/LIBINT Hybrid
RI-J (if used) integral strategy            ... SPLIT-RIJ (Revised 2003 algorithm where possible)
Printlevel                                  ...      1
Contraction scheme used                     ... SEGMENTED contraction
Prescreening option                         ... SCHWARTZ
   Thresh                                   ... 2.500e-11
   Tcut                                     ... 2.500e-12
   Tpresel                                  ... 2.500e-12 
Coulomb Range Separation                    ... NOT USED
Exchange Range Separation                   ... NOT USED
Multipole approximations                    ... NOT USED
Finite Nucleus Model                        ... NOT USED
CABS basis                                  ... NOT available
Auxiliary Coulomb fitting basis             ... AVAILABLE
   # of basis functions in Aux-J            ...    747
   # of shells in Aux-J                     ...    245
   Maximum angular momentum in Aux-J        ...      4
Auxiliary J/K fitting basis                 ... NOT available
Auxiliary Correlation fitting basis         ... NOT available
Auxiliary 'external' fitting basis          ... NOT available

Checking pre-screening integrals            ... done (  0.0 sec) Dimension = 108
   => SHARK Basis and OBASIS are compatible. Storing Pre-screening
Shell pair information
Shell pair cut-off parameter TPreSel        ...   2.5e-12
Total number of shell pairs                 ...      5886
Shell pairs after pre-screening             ...      4947
Total number of primitive shell pairs       ...     30438
Primitive shell pairs kept                  ...     15839
          la=0 lb=0:   1475 shell pairs
          la=1 lb=0:   1796 shell pairs
          la=1 lb=1:    578 shell pairs
          la=2 lb=0:    628 shell pairs
          la=2 lb=1:    394 shell pairs
          la=2 lb=2:     76 shell pairs

Checking whether 4 symmetric matrices of dimension 232 fit in memory
:Max Core in MB      =   3000.00
 MB in use           =     10.16
 MB left             =   2989.84
 MB needed           =      0.82
 Data fit in memory  = YES
Calculating RI/J V-Matrix + Cholesky decomp.... done (  0.0 sec)
Calculating Nuclear repulsion               ... done (  0.0 sec) ENN=    782.402301170840 Eh

Diagonalization of the overlap matrix:
Smallest eigenvalue                        ... 4.881e-04
Time for diagonalization                   ...    0.006 sec
Threshold for overlap eigenvalues          ... 1.000e-07
Number of eigenvalues below threshold      ... 0
Time for construction of square roots      ...    0.002 sec
Total time needed                          ...    0.009 sec

-------------------
DFT GRID GENERATION
-------------------

General Integration Accuracy     IntAcc      ... 4.388
Radial Grid Type                 RadialGrid  ... OptM3 with GC (2021)
Angular Grid (max. ang.)         AngularGrid ... 4 (Lebedev-302)
Angular grid pruning method      GridPruning ... 4 (adaptive)
Weight generation scheme         WeightScheme... mBecke (2022)
Basis function cutoff            BFCut       ... 1.0000e-11
Integration weight cutoff        WCut        ... 1.0000e-14
Partially contracted basis set               ... off
Rotationally invariant grid construction     ... off
Angular grids for H and He will be reduced by one unit

Total number of grid points                  ...   110127
Total number of batches                      ...     1732
Average number of points per batch           ...       63
Average number of grid points per atom       ...     4788

--------------------
COSX GRID GENERATION
--------------------

GRIDX 1
-------
General Integration Accuracy     IntAcc      ... 3.816
Radial Grid Type                 RadialGrid  ... OptM3 with GC (2021)
Angular Grid (max. ang.)         AngularGrid ... 1 (Lebedev-50)
Angular grid pruning method      GridPruning ... 4 (adaptive)
Weight generation scheme         WeightScheme... mBecke (2022)
Basis function cutoff            BFCut       ... 1.0000e-11
Integration weight cutoff        WCut        ... 1.0000e-14
Partially contracted basis set               ... on
Rotationally invariant grid construction     ... off
Angular grids for H and He will be reduced by one unit

Total number of grid points                  ...    13972
Total number of batches                      ...      122
Average number of points per batch           ...      114
Average number of grid points per atom       ...      607
UseSFitting                                  ... on

GRIDX 2
-------
General Integration Accuracy     IntAcc      ... 4.020
Radial Grid Type                 RadialGrid  ... OptM3 with GC (2021)
Angular Grid (max. ang.)         AngularGrid ... 2 (Lebedev-110)
Angular grid pruning method      GridPruning ... 4 (adaptive)
Weight generation scheme         WeightScheme... mBecke (2022)
Basis function cutoff            BFCut       ... 1.0000e-11
Integration weight cutoff        WCut        ... 1.0000e-14
Partially contracted basis set               ... on
Rotationally invariant grid construction     ... off
Angular grids for H and He will be reduced by one unit

Total number of grid points                  ...    30644
Total number of batches                      ...      250
Average number of points per batch           ...      122
Average number of grid points per atom       ...     1332
UseSFitting                                  ... on

GRIDX 3
-------
General Integration Accuracy     IntAcc      ... 4.338
Radial Grid Type                 RadialGrid  ... OptM3 with GC (2021)
Angular Grid (max. ang.)         AngularGrid ... 3 (Lebedev-194)
Angular grid pruning method      GridPruning ... 4 (adaptive)
Weight generation scheme         WeightScheme... mBecke (2022)
Basis function cutoff            BFCut       ... 1.0000e-11
Integration weight cutoff        WCut        ... 1.0000e-14
Partially contracted basis set               ... on
Rotationally invariant grid construction     ... off
Angular grids for H and He will be reduced by one unit

Total number of grid points                  ...    67273
Total number of batches                      ...      536
Average number of points per batch           ...      125
Average number of grid points per atom       ...     2925
UseSFitting                                  ... on
Grids setup in   2.0 sec
Initializing property integral containers    ... done (  0.0 sec)

SHARK setup successfully completed in   2.2 seconds

Maximum memory used throughout the entire STARTUP-calculation: 38.0 MB


           ************************************************************
           *        Program running with 2 parallel MPI-processes     *
           *              working on a common directory               *
           ************************************************************
-------------------------------------------------------------------------------
                                 ORCA GUESS
                   Start orbitals & Density for SCF / CASSCF
-------------------------------------------------------------------------------

------------
SCF SETTINGS
------------
Hamiltonian:
 Density Functional     Method          .... DFT(GTOs)
 Exchange Functional    Exchange        .... B88
   X-Alpha parameter    XAlpha          ....  0.666667
   Becke's b parameter  XBeta           ....  0.004200
 Correlation Functional Correlation     .... LYP
 LDA part of GGA corr.  LDAOpt          .... VWN-5
 Gradients option       PostSCFGGA      .... off
 Hybrid DFT is turned on
   Fraction HF Exchange ScalHFX         ....  0.200000
   Scaling of DF-GGA-X  ScalDFX         ....  0.720000
   Scaling of DF-GGA-C  ScalDFC         ....  0.810000
   Scaling of DF-LDA-C  ScalLDAC        ....  1.000000
   Perturbative correction              ....  0.000000
   NL short-range parameter             ....  4.800000
 RI-approximation to the Coulomb term is turned on
   Number of AuxJ basis functions       .... 747
   RIJ-COSX (HFX calculated with COS-X)).... on


General Settings:
 Integral files         IntName         .... /kaggle/working/Phe-F-2/Phe-F_InterFrag
 Hartree-Fock type      HFTyp           .... RHF
 Total Charge           Charge          ....    0
 Multiplicity           Mult            ....    1
 Number of Electrons    NEL             ....   96
 Basis Dimension        Dim             ....  232
 Nuclear Repulsion      ENuc            ....    782.4023011708 Eh

Convergence Acceleration:
 AO-DIIS                CNVDIIS         .... on
   Start iteration      DIISMaxIt       ....    12
   Startup error        DIISStart       ....  0.200000
   # of expansion vecs  DIISMaxEq       ....     5
   Bias factor          DIISBfac        ....   1.050
   Max. coefficient     DIISMaxC        ....  10.000
 MO-DIIS                CNVKDIIS        .... off
 Trust-Rad. Augm. Hess. CNVTRAH         .... auto
   Auto Start mean grad. ratio tolernc. ....  1.125000
   Auto Start start iteration           ....    50
   Auto Start num. interpolation iter.  ....    10
   Max. Number of Micro iterations      ....    24
   Max. Number of Macro iterations      .... Maxiter - #DIIS iter
   Number of Davidson start vectors     ....     2
   Converg. threshold    (grad. norm)   ....   1.000e-05
   Grad. Scal. Fac. for Micro threshold ....   0.100
   Minimum threshold for Micro iter.    ....   1.000e-02
   NR start threshold (gradient norm)   ....   1.000e-04
   Initial trust radius                 ....   0.400
   Minimum AH scaling param. (alpha)    ....   1.000
   Maximum AH scaling param. (alpha)    .... 1000.000
   Quad. conv. algorithm                .... NR
   White noise on init. David. guess    .... on
   Maximum white noise                  ....   0.010
   Pseudo random numbers                .... off
   Inactive MOs                         .... canonical
   Orbital update algorithm             .... Taylor
   Preconditioner                       .... Diag
   Full preconditioner red. dimension   ....   250
 SOSCF                 CNVSOSCF           .... on
   Start iteration     SOSCFMaxIt         ....   150
   Startup grad/error  SOSCFStart         ....  0.003300
   Hessian update      SOSCFHessUp        .... L-BFGS
   Autom. constraints  SOSCFAutoConstrain .... off
 Level Shifting         CNVShift        .... on
   Level shift para.    LevelShift      ....    0.2500
   Turn off err/grad.   ShiftErr        ....    0.0010
 Zerner damping         CNVZerner       .... off
 Static damping         CNVDamp         .... on
   Fraction old density DampFac         ....    0.7000
   Max. Damping (<1)    DampMax         ....    0.9800
   Min. Damping (>=0)   DampMin         ....    0.0000
   Turn off err/grad.   DampErr         ....    0.1000

SCF Procedure:
 Maximum # iterations   MaxIter         ....   125
 SCF integral mode      SCFMode         .... Direct
   Integral package                     .... SHARK and LIBINT hybrid scheme
 Reset frequency        DirectResetFreq ....    20
 Integral Threshold     Thresh          ....  2.500e-11 Eh
 Primitive CutOff       TCut            ....  2.500e-12 Eh

Convergence Tolerance:
 Convergence Check Mode ConvCheckMode   .... Total+1el-Energy
 Convergence forced     ConvForced      .... 0
 Energy Change          TolE            ....  1.000e-08 Eh
 1-El. energy change                    ....  1.000e-05 Eh
 Orbital Gradient       TolG            ....  1.000e-05
 Orbital Rotation angle TolX            ....  1.000e-05
 DIIS Error             TolErr          ....  5.000e-07

------------------------------
INITIAL GUESS: MODEL POTENTIAL
------------------------------
Loading Hartree-Fock densities                     ... done
Calculating cut-offs                               ... done
Initializing the effective Hamiltonian             ... done
Setting up the integral package (SHARK)            ... done
Starting the Coulomb interaction                   ... done (   0.2 sec)
Making the grid                                    ... done (   0.3 sec)
Mapping shells                                     ... done
Starting the XC term evaluation                    ... done (   0.2 sec)
  promolecular density results
     # of electrons  =     95.991414399
     EX              =    -82.271219225
     EC              =     -3.308760018
     EX+EC           =    -85.579979243
Transforming the Hamiltonian                       ... done (   0.0 sec)
Diagonalizing the Hamiltonian                      ... done (   0.0 sec)
Back transforming the eigenvectors                 ... done (   0.0 sec)
Now organizing SCF variables                       ... done
                      ------------------
                      INITIAL GUESS DONE (   0.6 sec)
                      ------------------
             **** ENERGY FILE WAS UPDATED (/kaggle/working/Phe-F-2/Phe-F_InterFrag.en.tmp) ****
Finished Guess after   1.0 sec
Maximum memory used throughout the entire GUESS-calculation: 14.8 MB


           ************************************************************
           *        Program running with 2 parallel MPI-processes     *
           *              working on a common directory               *
           ************************************************************

-------------------------------------------------------------------------------------------
                                      ORCA LEAN-SCF
                              memory conserving SCF solver
-------------------------------------------------------------------------------------------

----------------------------------------D-I-I-S--------------------------------------------
Iteration    Energy (Eh)           Delta-E    RMSDP     MaxDP     DIISErr   Damp  Time(sec)
-------------------------------------------------------------------------------------------
               ***  Starting incremental Fock matrix formation  ***
    1    -653.3043526183229233     0.00e+00  3.88e-03  9.24e-02  2.61e-01  0.700   5.5
    2    -653.4780040270301242    -1.74e-01  2.60e-03  5.11e-02  1.13e-01  0.700   2.8
                               ***Turning on AO-DIIS***
    3    -653.5442957140313638    -6.63e-02  1.04e-03  1.60e-02  3.95e-02  0.700   2.6
    4    -653.5845256029555230    -4.02e-02  1.68e-03  2.15e-02  1.81e-02  0.000   2.6
    5    -653.6731429227853596    -8.86e-02  3.82e-04  7.14e-03  6.63e-03  0.000   2.6
                              *** Initializing SOSCF ***
---------------------------------------S-O-S-C-F--------------------------------------
Iteration    Energy (Eh)           Delta-E    RMSDP     MaxDP     MaxGrad    Time(sec)
--------------------------------------------------------------------------------------
    6    -653.6736800619463565    -5.37e-04  1.18e-04  2.13e-03  1.93e-03     2.4
               *** Restarting incremental Fock matrix formation ***
    7    -653.6736916243263522    -1.16e-05  8.78e-05  1.46e-03  3.73e-04     5.5
    8    -653.6736872638333580     4.36e-06  3.89e-05  1.19e-03  9.03e-04     3.8
    9    -653.6736961982015828    -8.93e-06  2.24e-05  3.87e-04  1.38e-04     3.5
   10    -653.6736959545090713     2.44e-07  1.21e-05  2.38e-04  1.85e-04     3.3
   11    -653.6736966066195009    -6.52e-07  4.81e-06  7.52e-05  2.68e-05     3.0
   12    -653.6736965852734329     2.13e-08  2.88e-06  4.20e-05  3.81e-05     2.7
   13    -653.6736966220704517    -3.68e-08  8.67e-07  1.55e-05  3.46e-06     2.6
   14    -653.6736966087170231     1.34e-08  5.34e-07  9.19e-06  6.11e-06     2.1
   15    -653.6736966195711602    -1.09e-08  7.27e-08  1.33e-06  3.77e-07     1.9
                  *** Gradient check signals convergence ***

               *****************************************************
               *                     SUCCESS                       *
               *           SCF CONVERGED AFTER  15 CYCLES          *
               *****************************************************

Recomputing exchange energy using gridx3       ... done (    8.820 sec)
Old exchange energy                            :    -16.686620203 Eh
New exchange energy                            :    -16.686662961 Eh
Exchange energy change after final integration :     -0.000042758 Eh
Total energy after final integration           :   -653.673739375 Eh
             **** ENERGY FILE WAS UPDATED (/kaggle/working/Phe-F-2/Phe-F_InterFrag.en.tmp) ****

----------------
TOTAL SCF ENERGY
----------------

Total Energy       :       -653.67373937535046 Eh          -17787.36674 eV

Components:
Nuclear Repulsion  :        782.40230117084013 Eh           21290.24899 eV
Electronic Energy  :      -1436.07599778778967 Eh          -39077.61457 eV
One Electron Energy:      -2445.30594903887140 Eh          -66540.15771 eV
Two Electron Energy:       1009.22995125108184 Eh           27462.54314 eV

Virial components:
Potential Energy   :      -1303.49492039143570 Eh          -35469.90004 eV
Kinetic Energy     :        649.82118101608535 Eh           17682.53330 eV
Virial Ratio       :          2.00592864386667

DFT components:
N(Alpha)           :       47.999911107103 electrons
N(Beta)            :       47.999911107103 electrons
N(Total)           :       95.999822214206 electrons
E(X)               :      -66.313217417695 Eh       
E(C)               :       -3.898665685391 Eh       
E(XC)              :      -70.211883103086 Eh       

---------------
SCF CONVERGENCE
---------------

  Last Energy change         ...    1.0854e-08  Tolerance :   1.0000e-08
  Last MAX-Density change    ...    1.3322e-06  Tolerance :   1.0000e-07
  Last RMS-Density change    ...    7.2711e-08  Tolerance :   5.0000e-09
  Last DIIS Error            ...    1.9281e-03  Tolerance :   5.0000e-07
  Last Orbital Gradient      ...    3.7703e-07  Tolerance :   1.0000e-05
  Last Orbital Rotation      ...    5.8354e-07  Tolerance :   1.0000e-05


----------------
ORBITAL ENERGIES
----------------

  NO   OCC          E(Eh)            E(eV) 
   0   2.0000     -24.693402      -671.9416 
   1   2.0000     -19.195155      -522.3267 
   2   2.0000     -19.135051      -520.6912 
   3   2.0000     -14.317075      -389.5874 
   4   2.0000     -10.315085      -280.6877 
   5   2.0000     -10.265998      -279.3520 
   6   2.0000     -10.226369      -278.2736 
   7   2.0000     -10.195653      -277.4378 
   8   2.0000     -10.194588      -277.4088 
   9   2.0000     -10.194236      -277.3993 
  10   2.0000     -10.193049      -277.3670 
  11   2.0000     -10.191782      -277.3325 
  12   2.0000     -10.191362      -277.3210 
  13   2.0000      -1.207878       -32.8680 
  14   2.0000      -1.105615       -30.0853 
  15   2.0000      -1.011635       -27.5280 
  16   2.0000      -0.897255       -24.4156 
  17   2.0000      -0.863265       -23.4906 
  18   2.0000      -0.785584       -21.3768 
  19   2.0000      -0.755810       -20.5666 
  20   2.0000      -0.724036       -19.7020 
  21   2.0000      -0.673359       -18.3230 
  22   2.0000      -0.624987       -17.0068 
  23   2.0000      -0.601669       -16.3722 
  24   2.0000      -0.579073       -15.7574 
  25   2.0000      -0.536564       -14.6007 
  26   2.0000      -0.529423       -14.4063 
  27   2.0000      -0.488509       -13.2930 
  28   2.0000      -0.483038       -13.1441 
  29   2.0000      -0.476058       -12.9542 
  30   2.0000      -0.469994       -12.7892 
  31   2.0000      -0.451448       -12.2845 
  32   2.0000      -0.443219       -12.0606 
  33   2.0000      -0.435681       -11.8555 
  34   2.0000      -0.431756       -11.7487 
  35   2.0000      -0.421137       -11.4597 
  36   2.0000      -0.408878       -11.1261 
  37   2.0000      -0.389036       -10.5862 
  38   2.0000      -0.384872       -10.4729 
  39   2.0000      -0.368401       -10.0247 
  40   2.0000      -0.361478        -9.8363 
  41   2.0000      -0.349490        -9.5101 
  42   2.0000      -0.342067        -9.3081 
  43   2.0000      -0.315295        -8.5796 
  44   2.0000      -0.275564        -7.4985 
  45   2.0000      -0.259432        -7.0595 
  46   2.0000      -0.254732        -6.9316 
  47   2.0000      -0.230846        -6.2816 
  48   0.0000      -0.012937        -0.3520 
  49   0.0000      -0.000653        -0.0178 
  50   0.0000       0.009199         0.2503 
  51   0.0000       0.077904         2.1199 
  52   0.0000       0.078639         2.1399 
  53   0.0000       0.090137         2.4528 
  54   0.0000       0.117037         3.1847 
  55   0.0000       0.134870         3.6700 
  56   0.0000       0.144078         3.9206 
  57   0.0000       0.149975         4.0810 
  58   0.0000       0.165960         4.5160 
  59   0.0000       0.176245         4.7959 
  60   0.0000       0.185691         5.0529 
  61   0.0000       0.188077         5.1178 
  62   0.0000       0.193637         5.2691 
  63   0.0000       0.220189         5.9916 
  64   0.0000       0.232909         6.3378 
  65   0.0000       0.241487         6.5712 
  66   0.0000       0.264272         7.1912 
  67   0.0000       0.303956         8.2711 
  68   0.0000       0.316266         8.6060 
  69   0.0000       0.334727         9.1084 
  70   0.0000       0.342659         9.3242 
  71   0.0000       0.356044         9.6884 
  72   0.0000       0.373115        10.1530 
  73   0.0000       0.486051        13.2261 
  74   0.0000       0.490160        13.3379 
  75   0.0000       0.500327        13.6146 
  76   0.0000       0.522625        14.2214 
  77   0.0000       0.526605        14.3297 
  78   0.0000       0.538390        14.6503 
  79   0.0000       0.542228        14.7548 
  80   0.0000       0.566821        15.4240 
  81   0.0000       0.575348        15.6560 
  82   0.0000       0.585466        15.9313 
  83   0.0000       0.597699        16.2642 
  84   0.0000       0.602853        16.4045 
  85   0.0000       0.606008        16.4903 
  86   0.0000       0.633726        17.2446 
  87   0.0000       0.635938        17.3047 
  88   0.0000       0.645566        17.5668 
  89   0.0000       0.656083        17.8529 
  90   0.0000       0.661390        17.9973 
  91   0.0000       0.677337        18.4313 
  92   0.0000       0.703394        19.1403 
  93   0.0000       0.716876        19.5072 
  94   0.0000       0.746551        20.3147 
  95   0.0000       0.753692        20.5090 
  96   0.0000       0.774461        21.0741 
  97   0.0000       0.788342        21.4519 
  98   0.0000       0.796019        21.6608 
  99   0.0000       0.797706        21.7067 
 100   0.0000       0.815912        22.2021 
 101   0.0000       0.830894        22.6098 
 102   0.0000       0.849238        23.1090 
 103   0.0000       0.851517        23.1709 
 104   0.0000       0.867768        23.6132 
 105   0.0000       0.873456        23.7679 
 106   0.0000       0.882464        24.0131 
 107   0.0000       0.897558        24.4238 
 108   0.0000       0.901917        24.5424 
 109   0.0000       0.933886        25.4123 
 110   0.0000       0.940892        25.6030 
 111   0.0000       0.962880        26.2013 
 112   0.0000       0.972562        26.4647 
 113   0.0000       0.980785        26.6885 
 114   0.0000       0.991728        26.9863 
 115   0.0000       1.006826        27.3971 
 116   0.0000       1.020505        27.7693 
 117   0.0000       1.074182        29.2300 
 118   0.0000       1.085370        29.5344 
 119   0.0000       1.106672        30.1141 
 120   0.0000       1.115343        30.3500 
 121   0.0000       1.147403        31.2224 
 122   0.0000       1.166447        31.7406 
 123   0.0000       1.178929        32.0803 
 124   0.0000       1.200522        32.6679 
 125   0.0000       1.221346        33.2345 
 126   0.0000       1.239146        33.7189 
 127   0.0000       1.258163        34.2363 
 128   0.0000       1.337782        36.4029 
 129   0.0000       1.357939        36.9514 
 130   0.0000       1.367741        37.2181 
 131   0.0000       1.385767        37.7086 
 132   0.0000       1.387901        37.7667 
 133   0.0000       1.395677        37.9783 
 134   0.0000       1.409243        38.3474 
 135   0.0000       1.421926        38.6926 
 136   0.0000       1.445403        39.3314 
 137   0.0000       1.455458        39.6050 
 138   0.0000       1.465465        39.8773 
 139   0.0000       1.500446        40.8292 
 140   0.0000       1.513120        41.1741 
 141   0.0000       1.542309        41.9684 
 142   0.0000       1.591364        43.3032 
 143   0.0000       1.666583        45.3500 
 144   0.0000       1.705569        46.4109 
 145   0.0000       1.739433        47.3324 
 146   0.0000       1.746856        47.5344 
 147   0.0000       1.753832        47.7242 
 148   0.0000       1.771119        48.1946 
 149   0.0000       1.782870        48.5144 
 150   0.0000       1.792347        48.7722 
 151   0.0000       1.806274        49.1512 
 152   0.0000       1.825871        49.6845 
 153   0.0000       1.832041        49.8524 
 154   0.0000       1.846965        50.2585 
 155   0.0000       1.870046        50.8865 
 156   0.0000       1.879425        51.1417 
 157   0.0000       1.888833        51.3978 
 158   0.0000       1.911778        52.0221 
 159   0.0000       1.914041        52.0837 
 160   0.0000       1.934084        52.6291 
 161   0.0000       1.934918        52.6518 
 162   0.0000       1.950885        53.0863 
 163   0.0000       1.968020        53.5525 
 164   0.0000       1.984568        54.0028 
 165   0.0000       1.992300        54.2132 
 166   0.0000       2.012515        54.7633 
 167   0.0000       2.040224        55.5173 
 168   0.0000       2.050922        55.8084 
 169   0.0000       2.091209        56.9047 
 170   0.0000       2.106787        57.3286 
 171   0.0000       2.136608        58.1401 
 172   0.0000       2.171619        59.0928 
 173   0.0000       2.201863        59.9157 
 174   0.0000       2.223551        60.5059 
 175   0.0000       2.253247        61.3140 
 176   0.0000       2.260499        61.5113 
 177   0.0000       2.263223        61.5854 
 178   0.0000       2.281485        62.0824 
 179   0.0000       2.283011        62.1239 
 180   0.0000       2.298968        62.5581 
 181   0.0000       2.314481        62.9802 
 182   0.0000       2.322663        63.2029 
 183   0.0000       2.344846        63.8065 
 184   0.0000       2.362714        64.2927 
 185   0.0000       2.368073        64.4385 
 186   0.0000       2.409088        65.5546 
 187   0.0000       2.411018        65.6071 
 188   0.0000       2.438641        66.3588 
 189   0.0000       2.447620        66.6031 
 190   0.0000       2.456001        66.8312 
 191   0.0000       2.471734        67.2593 
 192   0.0000       2.492024        67.8114 
 193   0.0000       2.495098        67.8951 
 194   0.0000       2.513640        68.3996 
 195   0.0000       2.526206        68.7416 
 196   0.0000       2.555854        69.5483 
 197   0.0000       2.581509        70.2464 
 198   0.0000       2.597032        70.6688 
 199   0.0000       2.619907        71.2913 
 200   0.0000       2.646651        72.0190 
 201   0.0000       2.652863        72.1881 
 202   0.0000       2.662735        72.4567 
 203   0.0000       2.719221        73.9938 
 204   0.0000       2.733896        74.3931 
 205   0.0000       2.747802        74.7715 
 206   0.0000       2.756118        74.9978 
 207   0.0000       2.775482        75.5247 
 208   0.0000       2.809618        76.4536 
 209   0.0000       2.823477        76.8307 
 210   0.0000       2.861599        77.8681 
 211   0.0000       2.886391        78.5427 
 212   0.0000       2.911150        79.2164 
 213   0.0000       2.920609        79.4738 
 214   0.0000       2.969429        80.8023 
 215   0.0000       3.043752        82.8247 
 216   0.0000       3.057662        83.2032 
 217   0.0000       3.082172        83.8702 
 218   0.0000       3.097625        84.2907 
 219   0.0000       3.162711        86.0618 
 220   0.0000       3.195775        86.9615 
 221   0.0000       3.242005        88.2194 
 222   0.0000       3.290314        89.5340 
 223   0.0000       3.325899        90.5023 
 224   0.0000       3.343397        90.9785 
 225   0.0000       3.350071        91.1601 
 226   0.0000       3.371508        91.7434 
 227   0.0000       3.445328        93.7521 
 228   0.0000       3.504639        95.3661 
 229   0.0000       3.524664        95.9110 
 230   0.0000       3.566494        97.0492 
 231   0.0000       3.849664       104.7547 

                    ********************************
                    * MULLIKEN POPULATION ANALYSIS *
                    ********************************

-----------------------
MULLIKEN ATOMIC CHARGES
-----------------------
   0 F :   -0.323770
   1 O :   -0.461781
   2 O :   -0.447897
   3 N :   -0.555925
   4 C :   -0.258929
   5 C :   -0.011011
   6 C :    0.113161
   7 C :   -0.121924
   8 C :   -0.112987
   9 C :    0.554251
  10 C :   -0.145710
  11 C :   -0.141861
  12 C :    0.382521
  13 H :    0.111894
  14 H :    0.100263
  15 H :    0.121195
  16 H :    0.100732
  17 H :    0.085507
  18 H :    0.233162
  19 H :    0.247626
  20 H :    0.103441
  21 H :    0.103039
  22 H :    0.325003
Sum of atomic charges:   -0.0000000

--------------------------------
MULLIKEN REDUCED ORBITAL CHARGES
--------------------------------
  0 F s       :     3.970767  s :     3.970767
      pz      :     1.894154  p :     5.335968
      px      :     1.579859
      py      :     1.861955
      dz2     :     0.002114  d :     0.017035
      dxz     :     0.004034
      dyz     :     0.000979
      dx2y2   :     0.004982
      dxy     :     0.004925

  1 O s       :     3.825147  s :     3.825147
      pz      :     1.594392  p :     4.613027
      px      :     1.693106
      py      :     1.325529
      dz2     :     0.007099  d :     0.023608
      dxz     :     0.005613
      dyz     :     0.003022
      dx2y2   :     0.006202
      dxy     :     0.001671

  2 O s       :     3.860459  s :     3.860459
      pz      :     1.478177  p :     4.559731
      px      :     1.433761
      py      :     1.647792
      dz2     :     0.006854  d :     0.027707
      dxz     :     0.005252
      dyz     :     0.006022
      dx2y2   :     0.004736
      dxy     :     0.004843

  3 N s       :     3.608558  s :     3.608558
      pz      :     1.463846  p :     3.916767
      px      :     1.309717
      py      :     1.143204
      dz2     :     0.009463  d :     0.030600
      dxz     :     0.003501
      dyz     :     0.004196
      dx2y2   :     0.009590
      dxy     :     0.003850

  4 C s       :     3.238020  s :     3.238020
      pz      :     0.995694  p :     2.983179
      px      :     0.954845
      py      :     1.032640
      dz2     :     0.008685  d :     0.037731
      dxz     :     0.009059
      dyz     :     0.003734
      dx2y2   :     0.010978
      dxy     :     0.005275

  5 C s       :     3.184208  s :     3.184208
      pz      :     0.999418  p :     2.769623
      px      :     0.845194
      py      :     0.925011
      dz2     :     0.011517  d :     0.057180
      dxz     :     0.014366
      dyz     :     0.005258
      dx2y2   :     0.017061
      dxy     :     0.008978

  6 C s       :     3.131043  s :     3.131043
      pz      :     0.928546  p :     2.715427
      px      :     0.888060
      py      :     0.898821
      dz2     :     0.006297  d :     0.040370
      dxz     :     0.007405
      dyz     :     0.006180
      dx2y2   :     0.010403
      dxy     :     0.010084

  7 C s       :     3.186641  s :     3.186641
      pz      :     0.993883  p :     2.900192
      px      :     0.953356
      py      :     0.952953
      dz2     :     0.003516  d :     0.035091
      dxz     :     0.007122
      dyz     :     0.006226
      dx2y2   :     0.008845
      dxy     :     0.009383

  8 C s       :     3.184262  s :     3.184262
      pz      :     0.966431  p :     2.893633
      px      :     0.946839
      py      :     0.980364
      dz2     :     0.005025  d :     0.035092
      dxz     :     0.007010
      dyz     :     0.005350
      dx2y2   :     0.009174
      dxy     :     0.008533

  9 C s       :     2.978527  s :     2.978527
      pz      :     0.713955  p :     2.344527
      px      :     0.733548
      py      :     0.897024
      dz2     :     0.032142  d :     0.122695
      dxz     :     0.022921
      dyz     :     0.026443
      dx2y2   :     0.023588
      dxy     :     0.017601

 10 C s       :     3.179680  s :     3.179680
      pz      :     0.989974  p :     2.932631
      px      :     0.970676
      py      :     0.971981
      dz2     :     0.005101  d :     0.033399
      dxz     :     0.006932
      dyz     :     0.004725
      dx2y2   :     0.007468
      dxy     :     0.009173

 11 C s       :     3.178617  s :     3.178617
      pz      :     0.999562  p :     2.929841
      px      :     0.977099
      py      :     0.953180
      dz2     :     0.003547  d :     0.033404
      dxz     :     0.007115
      dyz     :     0.005652
      dx2y2   :     0.008914
      dxy     :     0.008176

 12 C s       :     3.091326  s :     3.091326
      pz      :     0.939325  p :     2.453253
      px      :     0.641449
      py      :     0.872478
      dz2     :     0.010227  d :     0.072900
      dxz     :     0.014266
      dyz     :     0.009037
      dx2y2   :     0.019924
      dxy     :     0.019447

 13 H s       :     0.876748  s :     0.876748
      pz      :     0.005932  p :     0.011357
      px      :     0.002671
      py      :     0.002754

 14 H s       :     0.888245  s :     0.888245
      pz      :     0.002394  p :     0.011492
      px      :     0.002181
      py      :     0.006918

 15 H s       :     0.867963  s :     0.867963
      pz      :     0.006232  p :     0.010842
      px      :     0.002229
      py      :     0.002380

 16 H s       :     0.886938  s :     0.886938
      pz      :     0.004561  p :     0.012331
      px      :     0.004282
      py      :     0.003488

 17 H s       :     0.902199  s :     0.902199
      pz      :     0.003357  p :     0.012294
      px      :     0.002469
      py      :     0.006468

 18 H s       :     0.743035  s :     0.743035
      pz      :     0.006392  p :     0.023803
      px      :     0.005441
      py      :     0.011971

 19 H s       :     0.728586  s :     0.728586
      pz      :     0.010927  p :     0.023787
      px      :     0.006633
      py      :     0.006228

 20 H s       :     0.884174  s :     0.884174
      pz      :     0.003340  p :     0.012384
      px      :     0.002474
      py      :     0.006571

 21 H s       :     0.884565  s :     0.884565
      pz      :     0.004642  p :     0.012396
      px      :     0.004379
      py      :     0.003374

 22 H s       :     0.637481  s :     0.637481
      pz      :     0.007414  p :     0.037516
      px      :     0.008180
      py      :     0.021922


------------------------
MULLIKEN OVERLAP CHARGES
------------------------
B(  0-F , 10-C ) :  -0.0906 B(  0-F , 11-C ) :  -0.0902 B(  0-F , 12-C ) :   0.5655 
B(  1-O ,  2-O ) :  -0.1631 B(  1-O ,  5-C ) :  -0.1572 B(  1-O ,  9-C ) :   0.5915 
B(  1-O , 22-H ) :   0.5476 B(  2-O ,  5-C ) :  -0.1619 B(  2-O ,  9-C ) :   1.2172 
B(  3-N ,  4-C ) :  -0.1140 B(  3-N ,  5-C ) :   0.6639 B(  3-N ,  9-C ) :  -0.0768 
B(  3-N , 15-H ) :  -0.0761 B(  3-N , 18-H ) :   0.6833 B(  3-N , 19-H ) :   0.6747 
B(  4-C ,  5-C ) :   0.6722 B(  4-C ,  6-C ) :   0.6070 B(  4-C ,  7-C ) :  -0.1010 
B(  4-C ,  8-C ) :  -0.1156 B(  4-C ,  9-C ) :  -0.0584 B(  4-C , 13-H ) :   0.7198 
B(  4-C , 14-H ) :   0.7291 B(  4-C , 15-H ) :  -0.0948 B(  5-C ,  6-C ) :  -0.0708 
B(  5-C ,  9-C ) :   0.6014 B(  5-C , 13-H ) :  -0.0735 B(  5-C , 14-H ) :  -0.0800 
B(  5-C , 15-H ) :   0.7301 B(  5-C , 18-H ) :  -0.0907 B(  5-C , 19-H ) :  -0.0840 
B(  6-C ,  7-C ) :   1.0806 B(  6-C ,  8-C ) :   1.0857 B(  6-C , 12-C ) :  -0.0730 
B(  6-C , 16-H ) :  -0.0817 B(  6-C , 17-H ) :  -0.0872 B(  7-C ,  8-C ) :  -0.0652 
B(  7-C , 10-C ) :   0.8866 B(  7-C , 11-C ) :  -0.0843 B(  7-C , 16-H ) :   0.7299 
B(  7-C , 20-H ) :  -0.0717 B(  8-C , 10-C ) :  -0.0840 B(  8-C , 11-C ) :   0.8996 
B(  8-C , 17-H ) :   0.7305 B(  8-C , 21-H ) :  -0.0727 B(  9-C , 15-H ) :  -0.0650 
B( 10-C , 11-C ) :  -0.1353 B( 10-C , 12-C ) :   0.9776 B( 10-C , 16-H ) :  -0.0731 
B( 10-C , 20-H ) :   0.7181 B( 11-C , 12-C ) :   0.9757 B( 11-C , 17-H ) :  -0.0758 
B( 11-C , 21-H ) :   0.7181 B( 12-C , 20-H ) :  -0.0708 B( 12-C , 21-H ) :  -0.0703 
B( 13-H , 14-H ) :  -0.0655 B( 18-H , 19-H ) :  -0.0643 


                     *******************************
                     * LOEWDIN POPULATION ANALYSIS *
                     *******************************

----------------------
LOEWDIN ATOMIC CHARGES
----------------------
   0 F :   -0.109177
   1 O :   -0.140622
   2 O :   -0.246372
   3 N :   -0.251495
   4 C :   -0.123436
   5 C :   -0.037226
   6 C :   -0.028849
   7 C :   -0.066036
   8 C :   -0.063765
   9 C :    0.152410
  10 C :   -0.099594
  11 C :   -0.097734
  12 C :    0.118513
  13 H :    0.076765
  14 H :    0.072432
  15 H :    0.079145
  16 H :    0.078823
  17 H :    0.073468
  18 H :    0.123758
  19 H :    0.130100
  20 H :    0.085064
  21 H :    0.085073
  22 H :    0.188753

-------------------------------
LOEWDIN REDUCED ORBITAL CHARGES
-------------------------------
  0 F s       :     3.734801  s :     3.734801
      pz      :     1.887652  p :     5.340067
      px      :     1.594151
      py      :     1.858264
      dz2     :     0.004264  d :     0.034309
      dxz     :     0.008112
      dyz     :     0.001935
      dx2y2   :     0.010070
      dxy     :     0.009928

  1 O s       :     3.475095  s :     3.475095
      pz      :     1.601930  p :     4.615769
      px      :     1.677430
      py      :     1.336409
      dz2     :     0.012739  d :     0.049758
      dxz     :     0.011497
      dyz     :     0.008177
      dx2y2   :     0.013073
      dxy     :     0.004272

  2 O s       :     3.562365  s :     3.562365
      pz      :     1.512958  p :     4.628929
      px      :     1.449741
      py      :     1.666230
      dz2     :     0.010689  d :     0.055078
      dxz     :     0.012377
      dyz     :     0.014135
      dx2y2   :     0.007750
      dxy     :     0.010127

  3 N s       :     3.212806  s :     3.212806
      pz      :     1.460432  p :     3.980256
      px      :     1.348196
      py      :     1.171628
      dz2     :     0.014963  d :     0.058433
      dxz     :     0.007163
      dyz     :     0.006842
      dx2y2   :     0.020163
      dxy     :     0.009303

  4 C s       :     2.901566  s :     2.901566
      pz      :     1.054282  p :     3.139420
      px      :     1.018639
      py      :     1.066500
      dz2     :     0.017903  d :     0.082450
      dxz     :     0.021378
      dyz     :     0.007332
      dx2y2   :     0.024114
      dxy     :     0.011724

  5 C s       :     2.882992  s :     2.882992
      pz      :     1.058031  p :     3.027711
      px      :     0.960952
      py      :     1.008728
      dz2     :     0.024296  d :     0.126523
      dxz     :     0.032530
      dyz     :     0.010875
      dx2y2   :     0.039472
      dxy     :     0.019350

  6 C s       :     2.873089  s :     2.873089
      pz      :     1.005114  p :     3.055267
      px      :     1.013331
      py      :     1.036822
      dz2     :     0.014157  d :     0.100493
      dxz     :     0.017314
      dyz     :     0.016405
      dx2y2   :     0.026835
      dxy     :     0.025782

  7 C s       :     2.897223  s :     2.897223
      pz      :     1.009221  p :     3.084480
      px      :     1.041681
      py      :     1.033578
      dz2     :     0.007962  d :     0.084333
      dxz     :     0.015664
      dyz     :     0.013616
      dx2y2   :     0.022597
      dxy     :     0.024494

  8 C s       :     2.895963  s :     2.895963
      pz      :     1.006054  p :     3.083345
      px      :     1.041422
      py      :     1.035869
      dz2     :     0.010961  d :     0.084457
      dxz     :     0.017908
      dyz     :     0.011149
      dx2y2   :     0.022886
      dxy     :     0.021553

  9 C s       :     2.851725  s :     2.851725
      pz      :     0.875171  p :     2.708862
      px      :     0.821658
      py      :     1.012033
      dz2     :     0.073712  d :     0.287003
      dxz     :     0.058233
      dyz     :     0.060784
      dx2y2   :     0.054544
      dxy     :     0.039730

 10 C s       :     2.899231  s :     2.899231
      pz      :     1.023980  p :     3.118934
      px      :     1.050589
      py      :     1.044364
      dz2     :     0.010993  d :     0.081429
      dxz     :     0.017986
      dyz     :     0.010389
      dx2y2   :     0.018989
      dxy     :     0.023072

 11 C s       :     2.899108  s :     2.899108
      pz      :     1.026169  p :     3.117236
      px      :     1.053622
      py      :     1.037444
      dz2     :     0.007824  d :     0.081390
      dxz     :     0.015507
      dyz     :     0.013195
      dx2y2   :     0.023245
      dxy     :     0.021619

 12 C s       :     2.864709  s :     2.864709
      pz      :     1.006442  p :     2.836618
      px      :     0.813368
      py      :     1.016808
      dz2     :     0.023875  d :     0.180159
      dxz     :     0.035303
      dyz     :     0.021151
      dx2y2   :     0.049626
      dxy     :     0.050205

 13 H s       :     0.883910  s :     0.883910
      pz      :     0.022016  p :     0.039326
      px      :     0.008606
      py      :     0.008704

 14 H s       :     0.888681  s :     0.888681
      pz      :     0.007080  p :     0.038886
      px      :     0.006553
      py      :     0.025252

 15 H s       :     0.881175  s :     0.881175
      pz      :     0.023172  p :     0.039679
      px      :     0.007530
      py      :     0.008978

 16 H s       :     0.880538  s :     0.880538
      pz      :     0.014976  p :     0.040639
      px      :     0.014213
      py      :     0.011450

 17 H s       :     0.886429  s :     0.886429
      pz      :     0.010459  p :     0.040102
      px      :     0.007626
      py      :     0.022018

 18 H s       :     0.798987  s :     0.798987
      pz      :     0.018751  p :     0.077255
      px      :     0.016091
      py      :     0.042412

 19 H s       :     0.791381  s :     0.791381
      pz      :     0.040764  p :     0.078519
      px      :     0.020407
      py      :     0.017347

 20 H s       :     0.873726  s :     0.873726
      pz      :     0.010667  p :     0.041210
      px      :     0.007978
      py      :     0.022564

 21 H s       :     0.873751  s :     0.873751
      pz      :     0.015268  p :     0.041175
      px      :     0.014727
      py      :     0.011179

 22 H s       :     0.697838  s :     0.697838
      pz      :     0.021495  p :     0.113408
      px      :     0.023799
      py      :     0.068114


---------------------------------
LOEWDIN BOND ORDERS (THRESH 0.050000)
---------------------------------
B(  0-F , 10-C ) :   0.0908 B(  0-F , 11-C ) :   0.0905 B(  0-F , 12-C ) :   1.2498 
B(  1-O ,  2-O ) :   0.2050 B(  1-O ,  5-C ) :   0.0635 B(  1-O ,  9-C ) :   1.4108 
B(  1-O , 22-H ) :   0.9830 B(  2-O ,  5-C ) :   0.0847 B(  2-O ,  9-C ) :   2.1980 
B(  3-N ,  4-C ) :   0.0708 B(  3-N ,  5-C ) :   1.1562 B(  3-N ,  9-C ) :   0.0552 
B(  3-N , 18-H ) :   0.9858 B(  3-N , 19-H ) :   0.9807 B(  4-C ,  5-C ) :   0.9889 
B(  4-C ,  6-C ) :   1.0391 B(  4-C ,  7-C ) :   0.0615 B(  4-C ,  8-C ) :   0.0604 
B(  4-C ,  9-C ) :   0.0546 B(  4-C , 13-H ) :   0.9253 B(  4-C , 14-H ) :   0.9223 
B(  5-C ,  9-C ) :   0.9812 B(  5-C , 15-H ) :   0.9051 B(  6-C ,  7-C ) :   1.4318 
B(  6-C ,  8-C ) :   1.4307 B(  6-C , 10-C ) :   0.0730 B(  6-C , 11-C ) :   0.0732 
B(  6-C , 12-C ) :   0.0964 B(  7-C ,  8-C ) :   0.0714 B(  7-C , 10-C ) :   1.4776 
B(  7-C , 11-C ) :   0.1102 B(  7-C , 12-C ) :   0.0826 B(  7-C , 16-H ) :   0.9194 
B(  8-C , 10-C ) :   0.1109 B(  8-C , 11-C ) :   1.4816 B(  8-C , 12-C ) :   0.0823 
B(  8-C , 17-H ) :   0.9216 B(  9-C , 22-H ) :   0.0575 B( 10-C , 11-C ) :   0.0747 
B( 10-C , 12-C ) :   1.4370 B( 10-C , 20-H ) :   0.9183 B( 11-C , 12-C ) :   1.4334 
B( 11-C , 21-H ) :   0.9183 

------------------------------------------
LOEWDIN REDUCED ORBITAL POPULATIONS PER MO
-------------------------------------------
THRESHOLD FOR PRINTING IS 0.1%%
                      0         1         2         3         4         5   
                 -24.69340 -19.19515 -19.13505 -14.31708 -10.31508 -10.26600
                   2.00000   2.00000   2.00000   2.00000   2.00000   2.00000
                  --------  --------  --------  --------  --------  --------
 0 F  s              99.9       0.0       0.0       0.0       0.0       0.0
 0 F  px              0.0       0.0       0.0       0.0       0.0       0.1
 1 O  s               0.0      99.9       0.0       0.0       0.0       0.0
 1 O  pz              0.0       0.0       0.0       0.0       0.1       0.0
 2 O  s               0.0       0.0      99.8       0.0       0.1       0.0
 2 O  pz              0.0       0.0       0.0       0.0       0.2       0.0
 2 O  py              0.0       0.0       0.0       0.0       0.1       0.0
 3 N  s               0.0       0.0       0.0      99.7       0.0       0.0
 5 C  py              0.0       0.0       0.0       0.0       0.1       0.0
 9 C  s               0.0       0.0       0.0       0.0      98.9       0.0
11 C  py              0.0       0.0       0.0       0.0       0.0       0.2
12 C  s               0.0       0.0       0.0       0.0       0.0      99.3

                      6         7         8         9        10        11   
                 -10.22637 -10.19565 -10.19459 -10.19424 -10.19305 -10.19178
                   2.00000   2.00000   2.00000   2.00000   2.00000   2.00000
                  --------  --------  --------  --------  --------  --------
 3 N  px              0.1       0.0       0.0       0.0       0.0       0.0
 4 C  s               0.0       0.8      98.4       0.3       0.0       0.0
 4 C  px              0.1       0.1       0.0       0.0       0.0       0.0
 5 C  s              99.4       0.0       0.0       0.0       0.0       0.0
 6 C  s               0.0      95.7       0.7       2.3       0.7       0.0
 6 C  px              0.0       0.0       0.1       0.1       0.0       0.0
 6 C  py              0.0       0.0       0.0       0.1       0.2       0.0
 7 C  s               0.0       0.7       0.0       0.1      96.9       0.0
 7 C  py              0.0       0.2       0.0       0.0       0.0       0.0
 8 C  s               0.0       2.2       0.5      95.9       0.0       0.8
 8 C  px              0.0       0.1       0.0       0.0       0.0       0.2
 9 C  py              0.2       0.0       0.0       0.0       0.0       0.0
10 C  s               0.0       0.0       0.0       0.0       1.7       0.0
10 C  px              0.0       0.0       0.0       0.0       0.2       0.0
11 C  s               0.0       0.0       0.0       0.8       0.0      98.6
11 C  px              0.0       0.0       0.0       0.2       0.0       0.0
12 C  py              0.0       0.0       0.0       0.0       0.0       0.2

                     12        13        14        15        16        17   
                 -10.19136  -1.20788  -1.10561  -1.01163  -0.89726  -0.86327
                   2.00000   2.00000   2.00000   2.00000   2.00000   2.00000
                  --------  --------  --------  --------  --------  --------
 0 F  s               0.0      75.9       0.0       0.0       0.0       0.9
 0 F  px              0.0       1.3       0.0       0.0       0.0       0.5
 0 F  py              0.0       0.2       0.0       0.0       0.0       0.1
 1 O  s               0.0       0.0      41.3      18.8       0.0       0.0
 1 O  pz              0.0       0.0       2.0       0.2       0.0       0.0
 1 O  px              0.0       0.0       1.0       0.1       0.0       0.0
 1 O  py              0.0       0.0       0.1       0.2       0.2       0.0
 2 O  s               0.0       0.0      13.8      40.9       1.3       0.0
 2 O  pz              0.0       0.0       1.4       1.2       0.0       0.0
 2 O  px              0.0       0.0       0.8       0.8       0.0       0.0
 2 O  py              0.0       0.0       0.5       1.3       0.0       0.0
 3 N  s               0.0       0.0       0.1       0.2      36.6       2.1
 3 N  pz              0.0       0.0       0.0       0.0       0.4       0.0
 3 N  px              0.0       0.0       0.0       0.0       2.2       0.0
 4 C  s               0.0       0.0       0.1       0.0       4.1       1.9
 4 C  pz              0.0       0.0       0.0       0.0       0.7       0.0
 4 C  px              0.0       0.0       0.0       0.0       0.7       1.6
 4 C  py              0.0       0.0       0.0       0.0       0.1       0.2
 5 C  s               0.0       0.0       1.0       0.4      16.9       0.1
 5 C  pz              0.0       0.0       0.0       0.1       0.7       0.0
 5 C  px              0.0       0.0       0.0       0.2       3.1       1.0
 5 C  py              0.0       0.0       1.6       0.2       0.9       0.0
 5 C  dx2y2           0.0       0.0       0.0       0.0       0.1       0.0
 5 C  dxy             0.0       0.0       0.0       0.0       0.1       0.0
 6 C  s               0.0       0.0       0.0       0.0       1.3      13.8
 6 C  px              0.0       0.0       0.0       0.0       0.2       1.2
 6 C  py              0.0       0.0       0.0       0.0       0.0       0.2
 7 C  s               1.7       0.0       0.0       0.0       0.4      11.9
 7 C  pz              0.0       0.0       0.0       0.0       0.0       0.9
 7 C  px              0.2       0.0       0.0       0.0       0.0       0.7
 7 C  py              0.0       0.0       0.0       0.0       0.1       0.8
 8 C  s               0.0       0.0       0.0       0.0       0.4      12.0
 8 C  pz              0.0       0.0       0.0       0.0       0.0       0.5
 8 C  py              0.0       0.0       0.0       0.0       0.1       1.8
 9 C  s               0.0       0.0      19.6       4.0       0.4       0.0
 9 C  pz              0.0       0.0       0.8      15.6       0.1       0.0
 9 C  px              0.0       0.0       0.3       8.3       0.1       0.0
 9 C  py              0.0       0.0       4.0       0.9       4.7       0.0
 9 C  dz2             0.0       0.0       0.1       0.0       0.0       0.0
 9 C  dxz             0.0       0.0       1.0       0.1       0.0       0.0
 9 C  dyz             0.0       0.0       0.0       1.3       0.0       0.0
 9 C  dxy             0.0       0.0       0.0       0.7       0.0       0.0
10 C  s              97.7       0.3       0.0       0.0       0.1      10.4
10 C  pz              0.0       0.3       0.0       0.0       0.0       0.3
10 C  px              0.0       0.5       0.0       0.0       0.0       0.3
10 C  py              0.0       0.1       0.0       0.0       0.0       1.8
11 C  s               0.0       0.3       0.0       0.0       0.1      10.5
11 C  pz              0.0       0.1       0.0       0.0       0.0       0.9
11 C  px              0.0       0.2       0.0       0.0       0.0       1.2
11 C  py              0.0       0.6       0.0       0.0       0.0       0.4
12 C  s               0.0       7.5       0.0       0.0       0.1       8.6
12 C  pz              0.1       0.5       0.0       0.0       0.0       0.2
12 C  px              0.1       8.6       0.0       0.0       0.1       3.7
12 C  py              0.1       1.5       0.0       0.0       0.0       0.7
12 C  dz2             0.0       0.3       0.0       0.0       0.0       0.0
12 C  dxz             0.0       0.2       0.0       0.0       0.0       0.0
12 C  dx2y2           0.0       0.5       0.0       0.0       0.0       0.0
12 C  dxy             0.0       0.5       0.0       0.0       0.0       0.0
13 H  s               0.0       0.0       0.0       0.0       0.7       0.3
14 H  s               0.0       0.0       0.0       0.0       0.8       0.3
15 H  s               0.0       0.0       0.2       0.0       2.5       0.0
15 H  pz              0.0       0.0       0.0       0.0       0.1       0.0
16 H  s               0.0       0.0       0.0       0.0       0.1       1.5
17 H  s               0.0       0.0       0.0       0.0       0.1       1.6
[...]
  9 C      5.4457     6.0000     0.5543     3.9567     3.9567     0.0000
 10 C      6.1457     6.0000    -0.1457     3.8885     3.8885     0.0000
 11 C      6.1419     6.0000    -0.1419     3.8929     3.8929     0.0000
 12 C      5.6175     6.0000     0.3825     3.8430     3.8430     0.0000
 13 H      0.8881     1.0000     0.1119     0.9605     0.9605     0.0000
 14 H      0.8997     1.0000     0.1003     0.9576     0.9576    -0.0000
 15 H      0.8788     1.0000     0.1212     0.9521     0.9521    -0.0000
 16 H      0.8993     1.0000     0.1007     0.9625     0.9625     0.0000
 17 H      0.9145     1.0000     0.0855     0.9602     0.9602    -0.0000
 18 H      0.7668     1.0000     0.2332     0.9237     0.9237    -0.0000
 19 H      0.7524     1.0000     0.2476     0.9285     0.9285    -0.0000
 20 H      0.8966     1.0000     0.1034     0.9586     0.9586    -0.0000
 21 H      0.8970     1.0000     0.1030     0.9585     0.9585    -0.0000
 22 H      0.6750     1.0000     0.3250     0.9115     0.9115    -0.0000

  Mayer bond orders larger than 0.100000
B(  0-F , 12-C ) :   0.9055 B(  1-O ,  9-C ) :   1.0999 B(  1-O , 22-H ) :   0.8513 
B(  2-O ,  9-C ) :   1.9042 B(  3-N ,  5-C ) :   1.0270 B(  3-N , 18-H ) :   0.9109 
B(  3-N , 19-H ) :   0.8961 B(  4-C ,  5-C ) :   0.9536 B(  4-C ,  6-C ) :   0.9812 
B(  4-C , 13-H ) :   0.9394 B(  4-C , 14-H ) :   0.9418 B(  5-C ,  9-C ) :   0.9239 
B(  5-C , 15-H ) :   0.9313 B(  6-C ,  7-C ) :   1.4277 B(  6-C ,  8-C ) :   1.4259 
B(  7-C , 10-C ) :   1.4108 B(  7-C , 16-H ) :   0.9353 B(  8-C , 11-C ) :   1.4172 
B(  8-C , 17-H ) :   0.9394 B( 10-C , 12-C ) :   1.4010 B( 10-C , 20-H ) :   0.9351 
B( 11-C , 12-C ) :   1.3980 B( 11-C , 21-H ) :   0.9349 

-------
TIMINGS
-------

Total SCF time: 0 days 0 hours 0 min 57 sec 

Total time                  ....      57.780 sec
Sum of individual times     ....      56.392 sec  ( 97.6%)

SCF preparation             ....       0.346 sec  (  0.6%)
Fock matrix formation       ....      55.465 sec  ( 96.0%)
  Startup                   ....       0.006 sec  (  0.0% of F)
  Split-RI-J                ....       5.441 sec  (  9.8% of F)
  Chain of spheres X        ....      42.477 sec  ( 76.6% of F)
  XC integration            ....       8.794 sec  ( 15.9% of F)
    XC Preparation          ....       0.000 sec  (  0.0% of XC)
    Basis function eval.    ....       3.495 sec  ( 39.7% of XC)
    Density eval.           ....       1.883 sec  ( 21.4% of XC)
    XC-Functional eval.     ....       0.480 sec  (  5.5% of XC)
    XC-Potential eval.      ....       2.376 sec  ( 27.0% of XC)
Diagonalization             ....       0.000 sec  (  0.0%)
Density matrix formation    ....       0.041 sec  (  0.1%)
Total Energy calculation    ....       0.020 sec  (  0.0%)
Population analysis         ....       0.233 sec  (  0.4%)
Orbital Transformation      ....       0.027 sec  (  0.0%)
Orbital Orthonormalization  ....       0.000 sec  (  0.0%)
DIIS solution               ....       0.130 sec  (  0.2%)
  MO trafo                  ....       0.000 sec  (  0.0 % of DIIS)
  Orb grad                  ....       0.000 sec  (  0.0 % of DIIS)
  Energy W gradient         ....       0.000 sec  (  0.0 % of DIIS)
  DIIS error                ....       0.028 sec  ( 21.8 % of DIIS)
  DIIS work                 ....       0.084 sec  ( 64.5 % of DIIS)
  Form Q                    ....       0.000 sec  (  0.0 % of DIIS)
  Form QpQm                 ....       0.000 sec  (  0.0 % of DIIS)
  Exp/Cayley                ....       0.000 sec  (  0.0 % of DIIS)
  Orb update                ....       0.000 sec  (  0.0 % of DIIS)
  Wake-sleep                ....       0.004 sec  (  3.4 % of DIIS)
SOSCF solution              ....       0.131 sec  (  0.2%)
  MO trafo                  ....       0.038 sec  ( 29.4 % of SOSCF)
  Orb grad                  ....       0.004 sec  (  3.3 % of SOSCF)
  Rot update                ....       0.018 sec  ( 13.7 % of SOSCF)
  Step                      ....       0.064 sec  ( 48.9 % of SOSCF)
Finished LeanSCF after  57.8 sec

Maximum memory used throughout the entire LEANSCF-calculation: 26.9 MB


-------------------------------------------------------------------------------
                          DFT DISPERSION CORRECTION                            
                                                                               
                              DFTD3 V3.1  Rev 1                                
                          USING Becke-Johnson damping                          
-------------------------------------------------------------------------------
The B3LYP functional is recognized
Active option DFTDOPT                   ...         4   

molecular C6(AA) [au] = 5526.041860 


            DFT-D V3
 parameters
 s6 scaling factor         :     1.0000 
 a1 scaling factor         :     0.3981 
 s8 scaling factor         :     1.9889 
 a2 scaling factor         :     4.4211 
 ad hoc parameters k1-k3   :    16.0000     1.3333    -4.0000 

 Edisp/kcal,au: -27.368836176632  -0.043615012025 
 E6   /kcal   : -12.975823982 
 E8   /kcal   : -14.393012195 
 % E8         :  52.589054580 

-------------------------   ----------------
Dispersion correction           -0.043615012
-------------------------   ----------------


-------------------------   --------------------
FINAL SINGLE POINT ENERGY      -653.717354387376
-------------------------   --------------------



           ************************************************************
           *        Program running with 2 parallel MPI-processes     *
           *              working on a common directory               *
           ************************************************************
------------------------------------------------------------------------------
                            ORCA SCF RESPONSE CALCULATION
------------------------------------------------------------------------------

GBWName                                 ... /kaggle/working/Phe-F-2/Phe-F_InterFrag.gbw
Number of atoms                         ...     23
Number of basis functions               ...    232
Max core memory                         ...   3000 MB

Electric field perturbation             ... YES
Quadrupolar field perturbation          ...  NO
Magnetic field perturbation (no GIAO)   ...  NO
Magnetic field perturbation (with GIAO) ...  NO
Linear momentum (velocity) perturbation ...  NO
Spin-orbit coupling perturbation        ...  NO
Choice of electric origin               ... Center of mass
Position of electric origin             ...     0.023998    -0.117481    -0.076616
Choice of magnetic origin               ... GIAO
Position of magnetic origin             ...     0.000000     0.000000     0.000000
Nuclear geometric perturbations         ...  NO (  69 perturbations)
Nucleus-orbit perturbations             ...  NO (   0 perturbations)
Spin-dipole/Fermi contact perturbations ...  NO (   0 perturbations)

Total number of real perturbations      ...      3
Total number of imaginary perturbations ...      0
Total number of triplet perturbations   ...      0
Total number of SOC perturbations       ...      0

Using XC Grid                  ... (/kaggle/working/Phe-F-2/Phe-F_InterFrag.grid_cpscf.tmp) 
Recalculating density on grid  ... (/kaggle/working/Phe-F-2/Phe-F_InterFrag.grho_cpscf0.tmp) done
Calculating the xc-kernel      ... (/kaggle/working/Phe-F-2/Phe-F_InterFrag.fxc_cpscf0.tmp) done

                                **********************
                                * REAL PERTURBATIONS *
                                **********************



-------------------
SHARK CP-SCF DRIVER
-------------------

Dimension of the orbital basis          ...    232
Dimension of the CPSCF-problem          ...   8832
Number of operators                     ...      1
Max. number of iterations               ...    128
Convergence Tolerance                   ... 1.0e-04
Number of perturbations                 ...      3
Perturbation type                       ... REAL

----------------------------
POPLE LINEAR EQUATION SOLVER
----------------------------

  ITERATION   0:   ||err||_max =   1.7371e+01 (   2.2 sec   0/  3 done)
  ITERATION   1:   ||err||_max =   1.0732e+00 (   2.0 sec   0/  3 done)
  ITERATION   2:   ||err||_max =   4.0340e-01 (   2.2 sec   0/  3 done)
  ITERATION   3:   ||err||_max =   1.3237e-01 (   2.0 sec   0/  3 done)
  ITERATION   4:   ||err||_max =   4.5422e-02 (   2.1 sec   0/  3 done)
  ITERATION   5:   ||err||_max =   1.4832e-02 (   2.1 sec   0/  3 done)
  ITERATION   6:   ||err||_max =   3.8809e-03 (   2.1 sec   0/  3 done)
  ITERATION   7:   ||err||_max =   1.3316e-03 (   2.1 sec   0/  3 done)
  ITERATION   8:   ||err||_max =   4.5273e-04 (   2.1 sec   0/  3 done)
  ITERATION   9:   ||err||_max =   1.7105e-04 (   2.1 sec   1/  3 done)
  ITERATION  10:   ||err||_max =   4.0887e-05 (   1.9 sec   3/  3 done)

CP-SCF equations solved in  23.0 sec
Response densities calculated in   0.0 sec

Maximum memory used throughout the entire SCFRESP-calculation: 30.2 MB


           ************************************************************
           *        Program running with 2 parallel MPI-processes     *
           *              working on a common directory               *
           ************************************************************

------------------------------------------------------------------------------
                              ORCA PROPERTY CALCULATIONS
------------------------------------------------------------------------------

GBWName                                 ... /kaggle/working/Phe-F-2/Phe-F_InterFrag.gbw
Number of atoms                         ...     23
Number of basis functions               ...    232
Max core memory                         ...   3000 MB

Electric properties:
Dipole moment                           ... YES
Quadrupole moment                       ...  NO
Static polarizability (Dipole/Dipole)   ... YES
Static polarizability (Dipole/Quad.)    ...  NO
Static polarizability (Quad./Quad.)     ...  NO
Static polarizability (Velocity)        ...  NO
Static hyperpolarizability              ...  NO

Atomic electric properties:
Dipole moment                           ...  NO
Quadrupole moment                       ...  NO
Static polarizability                   ...  NO

Choice of electric origin               ... Center of mass
Position of electric origin             ...     0.023998    -0.117481    -0.076616

General magnetic properties:
Magnetizability                         ...  NO

EPR properties:
g-Tensor (aka g-matrix)                 ...  NO
Zero-Field splitting spin-orbit         ...  NO
Zero-field splitting spin-spin          ...  NO
Hyperfine couplings                     ...  NO (   0 nuclei)
Quadrupole couplings                    ...  NO (   0 nuclei)
Contact density                         ...  NO (   0 nuclei)

NMR properties:
Chemical shifts                         ...  NO (   0 nuclei)
Spin-rotation constants                 ...  NO (   0 nuclei)
Spin-spin couplings                     ...  NO (   0 nuclei,    0 pairs)

Choice of magnetic origin               ... GIAO
Position of magnetic origin             ...     0.000000     0.000000     0.000000

Properties with geometric perturbations:
SCF Hessian                             ...  NO
IR spectrum                             ...  NO
VCD spectrum                            ...  NO
X-ray spectroscopy properties:
SCF XES/XAS/RIXS spectra                ...  NO

SCF SOC stabilization energy            ...  NO
Diagonal Born-Oppenheimer correction    ...  NO

-------------
DIPOLE MOMENT
-------------

Method             : SCF
Type of density    : Electron Density
Multiplicity       :   1
Irrep              :   0
Energy             :  -653.6737393753504648 Eh
Basis              : AO
                                X                 Y                 Z
Electronic contribution:     10.234891630      -6.253797761      -2.051893813
Nuclear contribution   :    -10.035032206       6.802858539       2.177359763
                        -----------------------------------------
Total Dipole Moment    :      0.199859424       0.549060778       0.125465950
                        -----------------------------------------
Magnitude (a.u.)       :      0.597622985
Magnitude (Debye)      :      1.519036908



--------------------
Rotational spectrum 
--------------------
 
Rotational constants in cm-1:             0.056709             0.014595             0.013283 
Rotational constants in MHz :          1700.103016           437.535568           398.227166 

Dipole components along the rotational axes: 
x,y,z [a.u.] :     0.148757     0.571293     0.092998 
x,y,z [Debye]:     0.378110     1.452112     0.236382 

 

Dipole moment calculation done in   0.0 sec 


---------------------------------------------------
STATIC POLARIZABILITY TENSOR (Dipole/Dipole)
---------------------------------------------------

Method             : SCF
Type of density    : Electron Density
Type of derivative : Electric Field (Direction=X)
Multiplicity       :   1
Irrep              :   0
Basis              : AO

The raw cartesian tensor (atomic units):
     124.690529722       -13.600239431       -18.072688707  
     -13.600239431       101.381799974       -13.919316597  
     -18.072688707       -13.919316597        75.633523225  
diagonalized tensor: 
      61.775542757       106.593453965       133.336856199  

Orientation: 
       0.332751310         0.164400970        -0.928573576  
       0.412319532         0.860210488         0.300050863  
       0.848097382        -0.482711340         0.218450436  

Isotropic polarizability : 100.56862


Polarizability tensor calculation done in   0.0 sec 

Maximum memory used throughout the entire PROP-calculation: 14.0 MB

--------------------------------
SUGGESTED CITATIONS FOR THIS RUN
--------------------------------

Below you find a list of papers that are relevant to this ORCA run
We neither can nor want to force you to cite these papers, but we appreciate if you do
You receive ORCA, which is the product of decades of hard work by many enthusiastic individuals, for free
The only thing we kindly ask in return is that you cite our papers,
We deeply appreciate it, if you show your appreciation for ORCA by not just citing the generic ORCA reference.

Please note that relegating all ORCA citations to the supporting information does *not* help us.
SI sections are not indexed - citations you put there will not count into any citation statistics
But we need these citations in order to attract the funding resources that allow us to do what we are doing

Therefore, if you are a happy ORCA user, please consider citing a few of the papers listed below in the main body of your paper

In addition to the list printed below, the program has created the file /kaggle/working/Phe-F-2/Phe-F_InterFrag.bibtex that contains the list in bibtex format
You can import this file easily into all common literature databanks and citation aid programs

It goes without saying that in many instances, there are alternative algorithms to achieve similar
results as the ones you have gotten from ORCA. It is, of course, also the case that in some instances
ORCA just re-implements algorithms worked out by others. We are fully aware of that and we are also
fully appreciative of our colleagues work. Hence this citation list should not be read as indicating
that the listed papers, which are focused on our own work, are the only ones worth citing. It simply
meant to make it easier for users to cite ORCA specific papers. It is not a substitute for doing your
own literature research and citing the relevant literature in a scientifically appropriate manner.

List of essential papers. We consider these as the minimum necessary citations

  1. Neese, F.
     Software update: the ORCA program system, version 6.0
     WIRES Comput. Molec. Sci. 2025 15(1), e70019
     doi.org/10.1002/wcms.70019

List of papers to cite with high priority. The work reported in these papers was absolutely
necessary for this run to complete.
Our perspective: the developers of density functionals and basis sets usually get cited in chemistry papers
Good! But without the algorithms to do something with them, the functionals or basis sets would not do anything.
Hence, in our opinion, the algorithm design and method developments papers are equally worthy of getting cited

  1. Neese, F.
     An improvement of the resolution of the identity approximation for the formation of the Coulomb matrix
     J. Comp. Chem. 2003 24(14), 1740-1747
     doi.org/10.1002/jcc.10318
  2. Neese, F.; Wennmohs, F.; Hansen, A.; Becker, U.
     Efficient, approximate and parallel Hartree-Fock and hybrid DFT calculations. A 'chain-of-spheres' algorithm for the Hartree-Fock exchange
     Chem. Phys. 2009 356(1-3), 98-109
     doi.org/10.1016/j.chemphys.2008.10.036
  3. Grimme, S.; Antony, J.; Ehrlich, S.; Krieg, H.
     A consistent and accurate ab initio parametrization of density functional dispersion correction (DFT-D) for the 94 elements H-Pu
     J. Chem. Phys. 2010 132 , 154104
     doi.org/10.1063/1.3382344
  4. Grimme, S.; Ehrlich, S.; Goerigk, L.
     Effect of the damping function in dispersion corrected density functional theory
     J. Comput. Chem. 2011 32(7), 1456-1465
     doi.org/10.1002/jcc.21759
  5. Helmich-Paris, B.; de Souza, B.; Neese, F.; Izsák, R.
     An improved chain of spheres for exchange algorithm
     J. Chem. Phys. 2021 155(10), 104109
     doi.org/10.1063/5.0058766
  6. Neese, F.
     The SHARK Integral Generation and Digestion System
     J. Comp. Chem. 2022 44(3), 381
     doi.org/10.1002/jcc.26942

List of suggested additional citations. These are papers that are important in the 'surrounding' of 
of this run, or papers that preceded the highly important papers. If you like your results we are grateful for a citation.

  1. Izsak, R.; Neese, F.
     An overlap fitted chain of spheres exchange method
     J. Chem. Phys. 2011 135 , 144105
     doi.org/10.1063/1.3646921
  2. Izsak, R.; Hansen, A.; Neese, F.
     The resolution of identity and chain of spheres approximations for the LPNO-CCSD singles Fock term
     Molec. Phys. 2012 110 , 2413-2417
     doi.org/10.1080/00268976.2012.687466
  3. Neese, F.
     The ORCA program system
     WIRES Comput. Molec. Sci. 2012 2(1), 73-78
     doi.org/10.1002/wcms.81
  4. Izsak, R.; Neese, F.; Klopper, W.
     Robust fitting techniques in the chain of spheres approximation to the Fock exchange: The role of the complementary space
     J. Chem. Phys. 2013 139 , 
     doi.org/10.1063/1.4819264
  5. Neese, F.
     Software update: the ORCA program system, version 4.0
     WIRES Comput. Molec. Sci. 2018 8(1), 1-6
     doi.org/10.1002/wcms.1327
  6. Neese, F.; Wennmohs, F.; Becker, U.; Riplinger, C.
     The ORCA quantum chemistry program package
     J. Chem. Phys. 2020 152(22), 224108
     doi.org/10.1063/5.0004608
  7. Neese, F.
     Software update: The ORCA program system—Version 5.0
     WIRES Comput. Molec. Sci. 2022 12(1), e1606
     doi.org/10.1002/wcms.1606

List of optional additional citations

  1. Neese, F.
     Approximate second-order SCF convergence for spin unrestricted wavefunctions
     Chem. Phys. Lett. 2000 325(1-3), 93-98
     doi.org/10.1016/s0009-2614(00)00662-x

Timings for individual modules:

Sum of individual times          ...       85.502 sec (=   1.425 min)
Startup calculation              ...        2.499 sec (=   0.042 min)   2.9 %
SCF iterations                   ...       58.955 sec (=   0.983 min)  69.0 %
SCF Response                     ...       23.639 sec (=   0.394 min)  27.6 %
Property calculations            ...        0.410 sec (=   0.007 min)   0.5 %
                             ****ORCA TERMINATED NORMALLY****
TOTAL RUN TIME: 0 days 0 hours 1 minutes 25 seconds 976 msec
