
                                 *****************
                                 * O   R   C   A *
                                 *****************

                                            #,                                       
                                            ###                                      
                                            ####                                     
                                            #####                                    
                                            ######                                   
                                           ########,                                 
                                     ,,################,,,,,                         
                               ,,#################################,,                 
                          ,,##########################################,,             
                       ,#########################################, ''#####,          
                    ,#############################################,,   '####,        
                  ,##################################################,,,,####,       
                ,###########''''           ''''###############################       
              ,#####''   ,,,,##########,,,,          '''####'''          '####       
            ,##' ,,,,###########################,,,                        '##       
           ' ,,###''''                  '''############,,,                           
         ,,##''                                '''############,,,,        ,,,,,,###''
      ,#''                                            '''#######################'''  
     '                                                          ''''####''''         
             ,#######,   #######,   ,#######,      ##                                
            ,#'     '#,  ##    ##  ,#'     '#,    #''#        ,####,    ,#,          
            ##       ##  ##   ,#'  ##            #'  '#       #'       ,# #          
            ##       ##  #######   ##           ,######,      #####,      #          
            '#,     ,#'  ##    ##  '#,     ,#' ,#      #,     #,   #      #          
             '#######'   ##     ##  '#######'  #'      '#     '####' #    #          



                #########################################################
                #                        -***-                          #
                #          Department of theory and spectroscopy        #
                #                                                       #
                #                      Frank Neese                      #
                #                                                       #
                #     Directorship, Architecture, Infrastructure        #
                #                    SHARK, DRIVERS                     #
                #        Core code/Algorithms in most modules           #
                #                                                       #
                #        Max Planck Institute fuer Kohlenforschung      #
                #                Kaiser Wilhelm Platz 1                 #
                #                 D-45470 Muelheim/Ruhr                 #
                #                      Germany                          #
                #                                                       #
                #                  All rights reserved                  #
                #                        -***-                          #
                #########################################################


                         Program Version 6.1.1  -  RELEASE   -
                                (GIT: $487d211c$)
                          ($2025-11-21 10:33:24 +0100$)
                                                                         
                                  - NO-DMRG VERSION -                    
                                                                         


 With contributions from (in alphabetic order):
[Max-Planck-Institut fuer Kohlenforschung]                               
  Daniel Aravena         : Magnetic Suceptibility                        
  Michael Atanasov       : Ab Initio Ligand Field Theory (pilot matlab implementation)
  Alexander A. Auer      : GIAO ZORA, VPT2 properties, NMR spectrum      
  Ute Becker             : All parallelization in ORCA, NUMFREQ, NUMCALC 
  Giovanni Bistoni       : ED, misc. LED, open-shell LED, HFLD           
  Dmytro Bykov           : pre 5.0 version of the SCF Hessian            
  Marcos Casanova-Páez   : Triplet and SCS-CIS(D). UHF-(DLPNO)-IP/EA/STEOM-CCSD. UHF-CVS-IP/STEOM-CCSD   
  Vijay G. Chilkuri      : MRCI spin determinant printing, contributions to CSF-ICE 
  Pauline Colinet        : FMM embedding                                 
  Dipayan Datta          : RHF DLPNO-CCSD density                        
  Achintya Kumar Dutta   : EOM-CC, STEOM-CC                              
  Nicolas Foglia         : Exact transition moments, OPA infrastructure, MCD improvements    
  Dmitry Ganyushin       : Spin-Orbit,Spin-Spin,Magnetic field MRCI      
  Miquel Garcia-Rates    : C-PCM and meta-GGA Hessian, CCSD/C-PCM, Gaussian charge scheme 
  Tiago L. C. Gouveia    : GS-ROHF, GS-ROCIS                             
  Yang Guo               : DLPNO-NEVPT2, F12-NEVPT2, CIM, IAO-localization        
  Andreas Hansen         : Spin unrestricted coupled pair/coupled cluster methods 
  Ingolf Harden          : AUTO-CI MPn and infrastructure                
  Benjamin Helmich-Paris : MC-RPA, TRAH-(SCF,CASSCF), AVAS, COSX integrals, SCF dyn. polar., MC-PDFT, srDFT 
  Lee Huntington         : MR-EOM, pCC                                   
  Robert Izsak           : Overlap fitted RIJCOSX, COSX-SCS-MP3, EOM     
  Riya Kayal             : Wick's Theorem for AUTO-CI, AUTO-CI UHF-CCSDT 
  Emily Kempfer          : AUTO-CI RHF CISDT and CCSDT, approximate NEVPT4
  Christian Kollmar      : KDIIS, OOCD, Brueckner-CCSD(T), CCSD density, CASPT2, CASPT2-K, improved NEVPT2 
  Axel Koslowski         : Symmetry handling                             
  Simone Kossmann        : meta-GGA functionals, TD-DFT gradient, OOMP2, (MP2 Hessian; deprecated post 5.0) 
  Lucas Lang             : DCDCAS, Hyperfine gauge corrections, ICE-SOC+SSC
  Marvin Lechner         : AUTO-CI (C++ implementation), FIC-MRCC        
  Spencer Leger          : CASSCF response                               
  Dagmar Lenk            : GEPOL surface, SMD, ORCA-2-JSON               
  Dimitrios Liakos       : Extrapolation schemes; Compound Job, Property file
  Dimitrios Manganas     : Further ROCIS development; embedding schemes. LFT, Crystal Embedding 
  Dimitrios Pantazis     : SARC Basis sets                               
  Anastasios Papadopoulos: AUTO-CI, single reference methods and gradients 
  Taras Petrenko         : pre 6.0 DFT Hessian and TD-DFT gradient,  ECA, NRVS 
  Petra Pikulova         : Analytic Raman intensities                    
  Peter Pinski           : DLPNO-MP2, DLPNO-MP2 Gradient                 
  Shashank Vittal Rao    : ES-AILFT, MagRelax                            
  Christoph Reimann      : Effective Core Potentials                     
  Marius Retegan         : Local ZFS, SOC                                
  Christoph Riplinger    : Optimizer, TS searches, QM/MM, DLPNO-CCSD(T), (RO)-DLPNO pert. Triples 
  Michael Roemelt        : Original ROCIS implementation, recursive CI coupling coefficients
  Masaaki Saitow         : Open-shell DLPNO-CCSD energy and density      
  Barbara Sandhoefer     : DKH picture change effects                    
  Yorick L. A. Schmerwitz: GMF and freeze-and-release deltaSCF, NEB S-IDPP initial path                    
  Kantharuban Sivalingam : CASSCF convergence/infrastructure, NEVPT2, NEVPT3, NEVPT4(SD), FIC-MRCI and CEPA variants
  Bernardo de Souza      : ESD, SOC TD-DFT                               
  Georgi L. Stoychev     : AutoAux, RI-MP2 NMR, DLPNO-MP2 response, X2C  
  Van Anh Tran           : RI-MP2 g-tensors                              
  Willem Van den Heuvel  : Paramagnetic NMR                              
  Zikuan Wang            : NOTCH, Electric field optimization            
  Frank Wennmohs         : Technical directorship and infrastructure     
  Hang Xu                : AUTO-CI-Response properties                   
                                                                         
[FACCTs GmbH]                                                            
  Markus Bursch, Nicolas Foglia, Miquel Garcia-Rates, Ingolf Harden, Hagen Neugebauer, Anastasios Papadopoulos, 
  Christoph Riplinger, Bernardo de Souza, Georgi L. Stoychev                                                    
                                                                 
  APM, various basis sets, CI-OPT, improved COSX, DLPNO-Multilevel,           
  DOCKER, DRACO, updates on ESD, Fragmentator, GOAT, IRC, LR-CPCM, L-BFGS, MBIS, meta-GGA TD-DFT gradient, ML-optimized integration grids, 
  MM, NACMEs, nearIR, NEB, NEB-TS, NL-DFT gradient (VV10), 2- and 3-layer-ONIOM, interface openCOSMO-RS, QMMM,   
  Crystal-QMMM, RESP, rigid body optimization, SF, symmetry and pop. for TD-DFT, various functionals, SOLVATOR                                   
                                                                         
[Other institutions]                                                     
  V. Asgeirsson          : NEB                                           
  Christoph Bannwarth    : sTDA-DFT, sTD-DFT, PBEh-3c, B97-3c, D3        
  Giovanni Bistoni       : ETS/NOCV, ADLD/ADEX, COVALED                  
  Martin Brehm           : Molecular dynamics                            
  Ronald Cardenas        : ETS/NOCV                                      
  Martina Colucci        : COVALED                                       
  Sebastian Ehlert       : rSCAN, r2SCAN, r2SCAN-3c, D4, dhf basis sets  
  Marvin Friede          : D4 for Fr, Ra, Ac-Lr                          
  Lars Goerigk           : TD-DFT with DH, B97 family of functionals     
  Stefan Grimme          : VdW corrections, initial TS optimization, DFT functionals, gCP, sTDA/sTD-DF 
  Waldemar Hujo          : DFT-NL                                        
  H. Jonsson             : NEB                                           
  Holger Kruse           : gCP                                           
  Marcel Mueller         : wB97X-3c, vDZP basis set                      
  Hagen Neugebauer       : wr2SCAN, Native XTB                           
  Gianluca Regni         : ADLD/ADEX                                     
  Tobias Risthaus        : pre 6.0 range-separated hybrid DFT and stability analysis
  Lukas Wittmann         : regularized MP2, r2SCAN double-hybrids, wr2SCAN        
                                                                         
We gratefully acknowledge several colleagues who have allowed us to      
interface, adapt or use parts of their codes:                            
  Ed Valeev, F. Pavosevic, A. Kumar             : LibInt (2-el integral package), F12 methods 
  Garnet Chan, S. Sharma, J. Yang, R. Olivares  : DMRG                   
  Ulf Ekstrom                                   : XCFun DFT Library      
  Mihaly Kallay                                 : mrcc  (arbitrary order and MRCC methods)
  Frank Weinhold                                : gennbo (NPA and NBO analysis)           
  Simon Mueller                                 : openCOSMO-RS                            
  Christopher J. Cramer and Donald G. Truhlar   : smd solvation model                     
  S Lehtola, MJT Oliveira, MAL Marques          : LibXC Library                           
  Liviu Ungur et al                             : ANISO software                          


 Your calculation uses the libint2 library for the computation of 2-el integrals
 For citations please refer to: http://libint.valeyev.net

 Your ORCA version has been built with support for libXC version: 7.0.0
 For citations please refer to: https://libxc.gitlab.io

 This ORCA versions uses:
   CBLAS   interface :  Fast vector & matrix operations
   LAPACKE interface :  Fast linear algebra routines
   SCALAPACK package :  Parallel linear algebra routines
   Shared memory     :  Shared parallel matrices
   BLAS/LAPACK       :  OpenBLAS 0.3.29  USE64BITINT DYNAMIC_ARCH NO_AFFINITY SkylakeX SINGLE_THREADED
        Core in use  :  SkylakeX
   Copyright (c) 2011-2014, The OpenBLAS Project


  ***********************************
  * Starting time: Tue Mar 24 17:20:45 2026
  * Host name:     a1c4cf6a54c6
  * Process ID:    54
  * Working dir.:  /kaggle/working
  ***********************************

NOTE: MaxCore=3000 MB was set to SCF,MP2,MDCI,CIPSI,MRCI,RASCI and CIS
      => If you want to overwrite this, your respective input block should be placed after the MaxCore statement
Your calculation utilizes the atom-pairwise dispersion correction
with the Becke-Johnson damping scheme (D3BJ)


Your calculation utilizes the SMD solvation module
Please cite in your paper:
Marenich, A. V.; Cramer, C. J.; Truhlar, D. G. J. Phys. Chem. B 2009, 113, 6378 

Warning: RI is on but no J-basis has been assigned. Assigning Def2/J (nothing to worry about!)
================================================================================

----- Orbital basis set information -----
Your calculation utilizes the basis: 6-31G(d,p)
   H-He, Li-Ne : W. J. Hehre, R. Ditchfield and J.A. Pople, J. Chem. Phys. 56, 2257 (1972).
                 Note: He and Ne are unpublished basis sets taken from the Gaussian program.
                 Note: Li and B from J. D. Dill and J. A. Pople, J. Chem. Phys. 62, 2921 (1975).
   Na - Ar     : M. M. Francl, W. J. Pietro, W. J. Hehre, J. S. Binkley, M. S. Gordon, 
                 D. J. DeFrees and J. A. Pople, J. Chem. Phys. 77, 3654 (1982).
   K - Zn      : V. A. Rassolov, J. A. Pople, M. A. Ratner, and T. L. Windus, J. Chem. Phys. 109, 1223 (1998).

----- AuxJ basis set information -----
Your calculation utilizes the auxiliary basis: def2/J
   H-Rn: F. Weigend, Phys. Chem. Chem. Phys. 8, 1057 (2006).
   Fr-Lr: K. Eichkorn, F. Weigend, O. Treutler, R. Ahlrichs; Theor. Chem. Acc. 97, 119 (1997).

================================================================================
                                        WARNINGS
                       Please study these warnings very carefully!
================================================================================


WARNING: Geometry Optimization
  ===> : Switching off AutoStart
         For restart on a previous wavefunction, please use MOREAD

================================================================================
                                       INPUT FILE
================================================================================
NAME = /kaggle/working/Phe-F-1/Phe-F_InterFrag.inp
|  1> 
|  2> !RKS B3LYP 6-31G(d,p) TightSCF Opt D3BJ
|  3>  
|  4> %pal nprocs 2 end
|  5> %maxcore 3000
|  6> 
|  7> %cpcm
|  8>   smd true
|  9>   SMDsolvent "WATER"
| 10>   end
| 11> 
| 12> %scf
| 13>   MaxIter 1000
| 14>   SOSCF Start 0.00033
| 15>   end
| 16> end
| 17> 
| 18> %output
| 19>   PrintLevel Normal
| 20>   Print[ P_OrbEn ] 2        # print ALL orbital energies (not just up to LUMO+9) :contentReference[oaicite:10]{index=10}
| 21>   XYZFile true              # writes basename.xyz (handy for reuse) :contentReference[oaicite:11]{index=11}
| 22>   end
| 23> 
| 24> *xyz 0 1
| 25> F        4.199200000     -0.631400000     -0.392500000
| 26> O       -1.772400000     -1.630200000     -0.993400000
| 27> O       -3.479200000     -1.156900000      0.423800000
| 28> N       -3.236200000      1.496300000     -0.233800000
| 29> C       -1.046900000      1.020800000      0.763900000
| 30> C       -2.046000000      0.656200000     -0.345200000
| 31> C        0.363800000      0.576400000      0.452900000
| 32> C        0.781800000     -0.681200000      0.854300000
| 33> C        1.210100000      1.436100000     -0.227400000
| 34> C       -2.518800000     -0.783300000     -0.237600000
| 35> C        2.083800000     -1.091300000      0.567200000
| 36> C        2.512000000      1.026100000     -0.514800000
| 37> C        2.948900000     -0.237700000     -0.117400000
| 38> H       -1.360600000      0.594100000      1.726600000
| 39> H       -1.029200000      2.108600000      0.920100000
| 40> H       -1.622900000      0.814600000     -1.343900000
| 41> H        0.117200000     -1.352600000      1.390100000
| 42> H        0.878200000      2.420900000     -0.543200000
| 43> H       -2.974800000      2.475300000     -0.346900000
| 44> H       -3.627100000      1.420600000      0.705100000
| 45> H        2.424400000     -2.074800000      0.877000000
| 46> H        3.185600000      1.690300000     -1.048100000
| 47> H       -2.091400000     -2.555500000     -0.928700000
| 48> *
| 49> 
| 50>                          ****END OF INPUT****
================================================================================

                       *****************************
                       * Geometry Optimization Run *
                       *****************************

Geometry optimization settings:
Update method            Update   .... BFGS
Choice of coordinates    CoordSys .... (2022) Redundant Internals
Initial Hessian          InHess   .... Almloef's Model
Max. no of cycles        MaxIter  .... 69

Convergence Tolerances:
Energy Change            TolE     ....  5.0000e-06 Eh
Max. Gradient            TolMAXG  ....  3.0000e-04 Eh/bohr
RMS Gradient             TolRMSG  ....  1.0000e-04 Eh/bohr
Max. Displacement        TolMAXD  ....  4.0000e-03 bohr
RMS Displacement         TolRMSD  ....  2.0000e-03 bohr
Strict Convergence                .... False

------------------------------------------------------------------------------
                        ORCA OPTIMIZATION COORDINATE SETUP
------------------------------------------------------------------------------

The optimization will be done in redundant internal coordinates (2022)
Making redundant internal coordinates   ...  (2022 redundants) done
Evaluating the initial hessian          ...  (Almloef) done
Evaluating the coordinates              ...  done
Calculating the B-matrix                .... done
Calculating the G-matrix                .... done
The number of degrees of freedom        ....  107

    -----------------------------------------------------------------
                    Redundant Internal Coordinates


    -----------------------------------------------------------------
         Definition                    Initial Value    Approx d2E/dq
    -----------------------------------------------------------------
      1. B(C   5,C   4)                  1.5366         0.364584   
      2. B(C   5,N   3)                  1.4611         0.430995   
      3. B(C   6,C   4)                  1.5114         0.400014   
      4. B(C   7,C   6)                  1.3847         0.637072   
      5. B(C   8,C   6)                  1.3850         0.636471   
      6. B(C   9,O   2)                  1.2245         1.027835   
      7. B(C   9,O   1)                  1.3585         0.628195   
      8. B(C   9,C   5)                  1.5190         0.389019   
      9. B(C  10,C   7)                  1.3949         0.613597   
     10. B(C  11,C   8)                  1.3949         0.613734   
     11. B(C  12,C  11)                  1.3950         0.613446   
     12. B(C  12,C  10)                  1.3949         0.613681   
     13. B(C  12,F   0)                  1.3394         0.626229   
     14. B(H  13,C   4)                  1.0988         0.348697   
     15. B(H  14,C   4)                  1.0991         0.348261   
     16. B(H  15,C   5)                  1.0961         0.352079   
     17. B(H  16,C   7)                  1.0861         0.365334   
     18. B(H  17,C   8)                  1.0861         0.365231   
     19. B(H  18,N   3)                  1.0196         0.417730   
     20. B(H  19,N   3)                  1.0198         0.417351   
     21. B(H  20,C  10)                  1.0859         0.365517   
     22. B(H  21,C  11)                  1.0860         0.365485   
     23. B(H  22,O   1)                  0.9809         0.481563   
     24. A(C   9,O   1,H  22)          111.8819         0.366100   
     25. A(H  18,N   3,H  19)          105.7634         0.299824   
     26. A(C   5,N   3,H  19)          109.8616         0.335340   
     27. A(C   5,N   3,H  18)          109.5599         0.335391   
     28. A(H  13,C   4,H  14)          105.3333         0.287864   
     29. A(C   5,C   4,H  14)          110.3577         0.321261   
     30. A(C   5,C   4,H  13)          110.7702         0.321327   
     31. A(C   5,C   4,C   6)          112.8666         0.366099   
     32. A(C   6,C   4,H  13)          109.4259         0.326255   
     33. A(C   6,C   4,H  14)          107.7716         0.326188   
     34. A(C   4,C   5,C   9)          112.0929         0.364356   
     35. A(C   4,C   5,H  15)          111.8613         0.321835   
     36. A(N   3,C   5,H  15)          107.5062         0.328833   
     37. A(C   9,C   5,H  15)          108.7618         0.325279   
     38. A(N   3,C   5,C   9)          106.6154         0.372632   
     39. A(N   3,C   5,C   4)          109.7664         0.368498   
     40. A(C   4,C   6,C   7)          119.2851         0.403410   
     41. A(C   7,C   6,C   8)          121.4457         0.438261   
     42. A(C   4,C   6,C   8)          119.2692         0.403343   
     43. A(C   6,C   7,H  16)          121.3143         0.355405   
     44. A(C  10,C   7,H  16)          119.4036         0.353151   
     45. A(C   6,C   7,C  10)          119.2818         0.435379   
     46. A(C  11,C   8,H  17)          119.4597         0.353147   
     47. A(C   6,C   8,H  17)          121.2593         0.355331   
     48. A(C   6,C   8,C  11)          119.2808         0.435323   
     49. A(O   1,C   9,O   2)          122.7668         0.470684   
     50. A(O   2,C   9,C   5)          124.8573         0.434292   
     51. A(O   1,C   9,C   5)          112.3558         0.397880   
     52. A(C   7,C  10,C  12)          119.9989         0.432459   
     53. A(C  12,C  10,H  20)          119.9814         0.353189   
     54. A(C   7,C  10,H  20)          120.0197         0.353181   
     55. A(C   8,C  11,C  12)          119.9944         0.432446   
     56. A(C  12,C  11,H  21)          119.9826         0.353161   
     57. A(C   8,C  11,H  21)          120.0230         0.353189   
     58. A(F   0,C  12,C  10)          119.9917         0.429296   
     59. A(C  10,C  12,C  11)          119.9983         0.432440   
     60. A(F   0,C  12,C  11)          120.0099         0.429267   
     61. D(C   9,C   5,C   4,C   6)     81.9405         0.010646   
     62. D(C   9,C   5,N   3,H  19)     67.0089         0.015837   
     63. D(C   9,C   5,C   4,H  13)    -41.1521         0.010646   
     64. D(C   9,C   5,C   4,H  14)   -157.4083         0.010646   
     65. D(N   3,C   5,C   4,H  13)     77.1289         0.010646   
     66. D(C   9,C   5,N   3,H  18)   -177.2133         0.015837   
     67. D(N   3,C   5,C   4,H  14)    -39.1273         0.010646   
     68. D(C   4,C   5,N   3,H  18)     61.1652         0.015837   
     69. D(N   3,C   5,C   4,C   6)   -159.7786         0.010646   
     70. D(H  15,C   5,N   3,H  18)    -60.7214         0.015837   
     71. D(C   4,C   5,N   3,H  19)    -54.6126         0.015837   
     72. D(C   7,C   6,C   4,H  14)    147.8886         0.011875   
     73. D(C   7,C   6,C   4,H  13)     33.8418         0.011875   
     74. D(C   7,C   6,C   4,C   5)    -89.9949         0.011875   
     75. D(C   8,C   6,C   4,C   5)     90.0048         0.011875   
     76. D(C   8,C   6,C   4,H  13)   -146.1585         0.011875   
     77. D(H  16,C   7,C   6,C   8)    179.8285         0.028181   
     78. D(H  16,C   7,C   6,C   4)     -0.1718         0.028181   
     79. D(C  10,C   7,C   6,C   8)     -0.0012         0.028181   
     80. D(C  10,C   7,C   6,C   4)    179.9984         0.028181   
     81. D(H  17,C   8,C   6,C   7)    179.8329         0.028125   
     82. D(C  11,C   8,C   6,C   7)      0.0132         0.028125   
     83. D(C  11,C   8,C   6,C   4)   -179.9864         0.028125   
     84. D(H  17,C   8,C   6,C   4)     -0.1668         0.028125   
     85. D(O   2,C   9,C   5,N   3)    -31.8268         0.011262   
     86. D(O   1,C   9,C   5,H  15)     30.9248         0.011262   
     87. D(O   1,C   9,C   5,C   4)    -93.2903         0.011262   
     88. D(O   1,C   9,C   5,N   3)    146.5763         0.011262   
     89. D(C   5,C   9,O   1,H  22)   -179.1960         0.029009   
     90. D(O   2,C   9,C   5,C   4)     88.3066         0.011262   
     91. D(O   2,C   9,O   1,H  22)     -0.7544         0.029009   
     92. D(H  20,C  10,C   7,H  16)      0.1245         0.026021   
     93. D(H  20,C  10,C   7,C   6)    179.9575         0.026021   
     94. D(C  12,C  10,C   7,H  16)   -179.8414         0.026021   
     95. D(C  12,C  10,C   7,C   6)     -0.0084         0.026021   
     96. D(H  21,C  11,C   8,H  17)      0.1443         0.026033   
     97. D(H  21,C  11,C   8,C   6)    179.9673         0.026033   
     98. D(C  12,C  11,C   8,H  17)   -179.8385         0.026033   
     99. D(C  12,C  11,C   8,C   6)     -0.0155         0.026033   
    100. D(C  10,C  12,C  11,C   8)      0.0061         0.026007   
    101. D(F   0,C  12,C  11,H  21)      0.0572         0.026007   
    102. D(F   0,C  12,C  11,C   8)   -179.9600         0.026007   
    103. D(C  11,C  12,C  10,H  20)   -179.9600         0.026028   
    104. D(C  11,C  12,C  10,C   7)      0.0059         0.026028   
    105. D(F   0,C  12,C  10,H  20)      0.0061         0.026028   
    106. D(C  10,C  12,C  11,H  21)   -179.9767         0.026007   
    107. D(F   0,C  12,C  10,C   7)    179.9720         0.026028   
    -----------------------------------------------------------------

Number of atoms                         .... 23
Number of degrees of freedom            .... 107


         *************************************************************
         *                GEOMETRY OPTIMIZATION CYCLE   1            *
         *************************************************************
---------------------------------
CARTESIAN COORDINATES (ANGSTROEM)
---------------------------------
  F      4.199200   -0.631400   -0.392500
  O     -1.772400   -1.630200   -0.993400
  O     -3.479200   -1.156900    0.423800
  N     -3.236200    1.496300   -0.233800
  C     -1.046900    1.020800    0.763900
  C     -2.046000    0.656200   -0.345200
  C      0.363800    0.576400    0.452900
  C      0.781800   -0.681200    0.854300
  C      1.210100    1.436100   -0.227400
  C     -2.518800   -0.783300   -0.237600
  C      2.083800   -1.091300    0.567200
  C      2.512000    1.026100   -0.514800
  C      2.948900   -0.237700   -0.117400
  H     -1.360600    0.594100    1.726600
  H     -1.029200    2.108600    0.920100
  H     -1.622900    0.814600   -1.343900
  H      0.117200   -1.352600    1.390100
  H      0.878200    2.420900   -0.543200
  H     -2.974800    2.475300   -0.346900
  H     -3.627100    1.420600    0.705100
  H      2.424400   -2.074800    0.877000
  H      3.185600    1.690300   -1.048100
  H     -2.091400   -2.555500   -0.928700

----------------------------
CARTESIAN COORDINATES (A.U.)
----------------------------
  NO LB      ZA    FRAG     MASS         X           Y           Z
   0 F     9.0000    0    18.998    7.935338   -1.193173   -0.741718
   1 O     8.0000    0    15.999   -3.349351   -3.080632   -1.877254
   2 O     8.0000    0    15.999   -6.574735   -2.186224    0.800866
   3 N     7.0000    0    14.007   -6.115532    2.827597   -0.441818
   4 C     6.0000    0    12.011   -1.978354    1.929032    1.443562
   5 C     6.0000    0    12.011   -3.866380    1.240038   -0.652333
   6 C     6.0000    0    12.011    0.687482    1.089238    0.855857
   7 C     6.0000    0    12.011    1.477388   -1.287281    1.614393
   8 C     6.0000    0    12.011    2.286758    2.713836   -0.429724
   9 C     6.0000    0    12.011   -4.759842   -1.480222   -0.448999
  10 C     6.0000    0    12.011    3.937811   -2.062258    1.071853
  11 C     6.0000    0    12.011    4.746992    1.939048   -0.972831
  12 C     6.0000    0    12.011    5.572613   -0.449188   -0.221854
  13 H     1.0000    0     1.008   -2.571161    1.122686    3.262801
  14 H     1.0000    0     1.008   -1.944906    3.984677    1.738737
  15 H     1.0000    0     1.008   -3.066837    1.539371   -2.539603
  16 H     1.0000    0     1.008    0.221476   -2.556044    2.626908
  17 H     1.0000    0     1.008    1.659557    4.574838   -1.026499
  18 H     1.0000    0     1.008   -5.621557    4.677639   -0.655546
  19 H     1.0000    0     1.008   -6.854226    2.684545    1.332446
  20 H     1.0000    0     1.008    4.581452   -3.920804    1.657290
  21 H     1.0000    0     1.008    6.019912    3.194204   -1.980622
  22 H     1.0000    0     1.008   -3.952173   -4.829195   -1.754989

--------------------------------
INTERNAL COORDINATES (ANGSTROEM)
--------------------------------
 F      0   0   0     0.000000000000     0.00000000     0.00000000
 O      1   0   0     6.084298547080     0.00000000     0.00000000
 O      2   1   0     2.268399208693   129.98098278     0.00000000
 N      3   2   1     2.744258916356    89.16292290    73.89248549
 C      4   3   2     2.452455918054    78.11832063   298.10774710
 C      4   3   2     1.461079741150    62.25712218   332.83448700
 C      5   4   3     1.511385738321   143.75783997    91.36052942
 C      7   5   4     1.384703477283   119.28508056   250.87020296
 C      7   5   4     1.384960602328   119.26917989    70.86987056
 C      3   2   1     1.224497888932    30.23815669    56.77722112
 C      8   7   5     1.394923804371   119.28184759   179.99841455
 C      9   7   5     1.394862849889   119.28080139   180.01355191
 C      1   2   3     1.339376642323    32.04149806   328.70679219
 H      5   4   3     1.098759241144   100.18736853   306.60212510
 H      5   4   3     1.099099890820    83.12506291   202.18678025
 H      6   4   3     1.096132227425   107.50621275   129.09331098
 H      8   7   5     1.086072170714   121.31433375   359.82815068
 H      9   7   5     1.086148373842   121.25926196   359.83324421
 H      4   3   2     1.019589412460   167.85350169   283.07123943
 H      4   3   2     1.019836511408    70.95473108   206.84215142
 H     11   8   7     1.085935840646   120.01974733   179.95750333
 H     12   9   7     1.085959248775   120.02298317   179.96726471
 H      2   1  13     0.980880818448   117.87458198   220.52791782

---------------------------
INTERNAL COORDINATES (A.U.)
---------------------------
 F      0   0   0     0.000000000000     0.00000000     0.00000000
 O      1   0   0    11.497657970996     0.00000000     0.00000000
 O      2   1   0     4.286653266834   129.98098278     0.00000000
 N      3   2   1     5.185897792485    89.16292290    73.89248549
 C      4   3   2     4.634470040637    78.11832063   298.10774710
 C      4   3   2     2.761040570595    62.25712218   332.83448700
 C      5   4   3     2.856105128141   143.75783997    91.36052942
 C      7   5   4     2.616710348754   119.28508056   250.87020296
 C      7   5   4     2.617196244670   119.26917989    70.86987056
 C      3   2   1     2.313965661647    30.23815669    56.77722112
 C      8   7   5     2.636023967948   119.28184759   179.99841455
 C      9   7   5     2.635908780671   119.28080139   180.01355191
 C      1   2   3     2.531055044161    32.04149806   328.70679219
 H      5   4   3     2.076354052878   100.18736853   306.60212510
 H      5   4   3     2.076997787472    83.12506291   202.18678025
 H      6   4   3     2.071389716399   107.50621275   129.09331098
 H      8   7   5     2.052378964323   121.31433375   359.82815068
 H      9   7   5     2.052522967366   121.25926196   359.83324421
 H      4   3   2     1.926744758595   167.85350169   283.07123943
 H      4   3   2     1.927211707934    70.95473108   206.84215142
 H     11   8   7     2.052121337831   120.01974733   179.95750333
 H     12   9   7     2.052165572784   120.02298317   179.96726471
 H      2   1  13     1.853596116884   117.87458198   220.52791782

---------------------
BASIS SET INFORMATION
---------------------
There are 5 groups of distinct atoms

 Group   1 Type F   : 10s4p1d contracted to 3s2p1d pattern {631/31/1}
 Group   2 Type O   : 10s4p1d contracted to 3s2p1d pattern {631/31/1}
 Group   3 Type N   : 10s4p1d contracted to 3s2p1d pattern {631/31/1}
 Group   4 Type C   : 10s4p1d contracted to 3s2p1d pattern {631/31/1}
 Group   5 Type H   : 4s1p contracted to 2s1p pattern {31/1}

Atom   0F    basis set group =>   1
Atom   1O    basis set group =>   2
Atom   2O    basis set group =>   2
Atom   3N    basis set group =>   3
Atom   4C    basis set group =>   4
Atom   5C    basis set group =>   4
Atom   6C    basis set group =>   4
Atom   7C    basis set group =>   4
Atom   8C    basis set group =>   4
Atom   9C    basis set group =>   4
Atom  10C    basis set group =>   4
Atom  11C    basis set group =>   4
Atom  12C    basis set group =>   4
Atom  13H    basis set group =>   5
Atom  14H    basis set group =>   5
Atom  15H    basis set group =>   5
Atom  16H    basis set group =>   5
Atom  17H    basis set group =>   5
Atom  18H    basis set group =>   5
Atom  19H    basis set group =>   5
Atom  20H    basis set group =>   5
Atom  21H    basis set group =>   5
Atom  22H    basis set group =>   5
---------------------------------
AUXILIARY/J BASIS SET INFORMATION
---------------------------------
There are 5 groups of distinct atoms

 Group   1 Type F   : 12s5p4d2f1g contracted to 6s4p3d1f1g pattern {711111/2111/211/2/1}
 Group   2 Type O   : 12s5p4d2f1g contracted to 6s4p3d1f1g pattern {711111/2111/211/2/1}
 Group   3 Type N   : 12s5p4d2f1g contracted to 6s4p3d1f1g pattern {711111/2111/211/2/1}
 Group   4 Type C   : 12s5p4d2f1g contracted to 6s4p3d1f1g pattern {711111/2111/211/2/1}
 Group   5 Type H   : 5s2p1d contracted to 3s1p1d pattern {311/2/1}

Atom   0F    basis set group =>   1
Atom   1O    basis set group =>   2
Atom   2O    basis set group =>   2
Atom   3N    basis set group =>   3
Atom   4C    basis set group =>   4
Atom   5C    basis set group =>   4
Atom   6C    basis set group =>   4
Atom   7C    basis set group =>   4
Atom   8C    basis set group =>   4
Atom   9C    basis set group =>   4
Atom  10C    basis set group =>   4
Atom  11C    basis set group =>   4
Atom  12C    basis set group =>   4
Atom  13H    basis set group =>   5
Atom  14H    basis set group =>   5
Atom  15H    basis set group =>   5
Atom  16H    basis set group =>   5
Atom  17H    basis set group =>   5
Atom  18H    basis set group =>   5
Atom  19H    basis set group =>   5
Atom  20H    basis set group =>   5
Atom  21H    basis set group =>   5
Atom  22H    basis set group =>   5


           ************************************************************
           *        Program running with 2 parallel MPI-processes     *
           *              working on a common directory               *
           ************************************************************
------------------------------------------------------------------------------
                             ORCA STARTUP CALCULATIONS
                           -- RI-GTO INTEGRALS CHOSEN --
------------------------------------------------------------------------------
------------------------------------------------------------------------------
                   ___                                                        
                  /   \      - P O W E R E D   B Y -                         
                 /     \                                                     
                 |  |  |   _    _      __       _____    __    __             
                 |  |  |  | |  | |    /  \     |  _  \  |  |  /  |          
                  \  \/   | |  | |   /    \    | | | |  |  | /  /          
                 / \  \   | |__| |  /  /\  \   | |_| |  |  |/  /          
                |  |  |   |  __  | /  /__\  \  |    /   |      \           
                |  |  |   | |  | | |   __   |  |    \   |  |\   \          
                \     /   | |  | | |  |  |  |  | |\  \  |  | \   \       
                 \___/    |_|  |_| |__|  |__|  |_| \__\ |__|  \__/        
                                                                              
                      - O R C A' S   B I G   F R I E N D -                    
                                      &                                       
                       - I N T E G R A L  F E E D E R -                       
                                                                              
 v1 FN, 2020, v2 2021, v3 2022-2024                                           
------------------------------------------------------------------------------


----------------------
SHARK INTEGRAL PACKAGE
----------------------

Number of atoms                             ...     23
Number of basis functions                   ...    232
Number of shells                            ...    108
Maximum angular momentum                    ...      2
Integral batch strategy                     ... SHARK/LIBINT Hybrid
RI-J (if used) integral strategy            ... SPLIT-RIJ (Revised 2003 algorithm where possible)
Printlevel                                  ...      1
Contraction scheme used                     ... SEGMENTED contraction
Prescreening option                         ... SCHWARTZ
   Thresh                                   ... 2.500e-11
   Tcut                                     ... 2.500e-12
   Tpresel                                  ... 2.500e-12 
Coulomb Range Separation                    ... NOT USED
Exchange Range Separation                   ... NOT USED
Multipole approximations                    ... NOT USED
Finite Nucleus Model                        ... NOT USED
CABS basis                                  ... NOT available
Auxiliary Coulomb fitting basis             ... AVAILABLE
   # of basis functions in Aux-J            ...    747
   # of shells in Aux-J                     ...    245
   Maximum angular momentum in Aux-J        ...      4
Auxiliary J/K fitting basis                 ... NOT available
Auxiliary Correlation fitting basis         ... NOT available
Auxiliary 'external' fitting basis          ... NOT available

Checking pre-screening integrals            ... done (  0.0 sec) Dimension = 108
   => SHARK Basis and OBASIS are compatible. Storing Pre-screening
Shell pair information
Shell pair cut-off parameter TPreSel        ...   2.5e-12
Total number of shell pairs                 ...      5886
Shell pairs after pre-screening             ...      4888
Total number of primitive shell pairs       ...     30438
Primitive shell pairs kept                  ...     15694
          la=0 lb=0:   1461 shell pairs
          la=1 lb=0:   1773 shell pairs
          la=1 lb=1:    574 shell pairs
          la=2 lb=0:    621 shell pairs
          la=2 lb=1:    386 shell pairs
          la=2 lb=2:     73 shell pairs

Checking whether 4 symmetric matrices of dimension 232 fit in memory
:Max Core in MB      =   3000.00
 MB in use           =     10.09
 MB left             =   2989.91
 MB needed           =      0.82
 Data fit in memory  = YES
Calculating RI/J V-Matrix + Cholesky decomp.... done (  0.1 sec)
Calculating Nuclear repulsion               ... done (  0.0 sec) ENN=    773.809796231069 Eh

Diagonalization of the overlap matrix:
Smallest eigenvalue                        ... 4.977e-04
Time for diagonalization                   ...    0.006 sec
Threshold for overlap eigenvalues          ... 1.000e-07
Number of eigenvalues below threshold      ... 0
Time for construction of square roots      ...    0.002 sec
Total time needed                          ...    0.009 sec

-------------------
DFT GRID GENERATION
-------------------

General Integration Accuracy     IntAcc      ... 4.388
Radial Grid Type                 RadialGrid  ... OptM3 with GC (2021)
Angular Grid (max. ang.)         AngularGrid ... 4 (Lebedev-302)
Angular grid pruning method      GridPruning ... 4 (adaptive)
Weight generation scheme         WeightScheme... mBecke (2022)
Basis function cutoff            BFCut       ... 1.0000e-11
Integration weight cutoff        WCut        ... 1.0000e-14
Partially contracted basis set               ... off
Rotationally invariant grid construction     ... off
Angular grids for H and He will be reduced by one unit

Total number of grid points                  ...   110172
Total number of batches                      ...     1734
Average number of points per batch           ...       63
Average number of grid points per atom       ...     4790

--------------------
COSX GRID GENERATION
--------------------

GRIDX 1
-------
General Integration Accuracy     IntAcc      ... 3.816
Radial Grid Type                 RadialGrid  ... OptM3 with GC (2021)
Angular Grid (max. ang.)         AngularGrid ... 1 (Lebedev-50)
Angular grid pruning method      GridPruning ... 4 (adaptive)
Weight generation scheme         WeightScheme... mBecke (2022)
Basis function cutoff            BFCut       ... 1.0000e-11
Integration weight cutoff        WCut        ... 1.0000e-14
Partially contracted basis set               ... on
Rotationally invariant grid construction     ... off
Angular grids for H and He will be reduced by one unit

Total number of grid points                  ...    13973
Total number of batches                      ...      123
Average number of points per batch           ...      113
Average number of grid points per atom       ...      608
UseSFitting                                  ... on

GRIDX 2
-------
General Integration Accuracy     IntAcc      ... 4.020
Radial Grid Type                 RadialGrid  ... OptM3 with GC (2021)
Angular Grid (max. ang.)         AngularGrid ... 2 (Lebedev-110)
Angular grid pruning method      GridPruning ... 4 (adaptive)
Weight generation scheme         WeightScheme... mBecke (2022)
Basis function cutoff            BFCut       ... 1.0000e-11
Integration weight cutoff        WCut        ... 1.0000e-14
Partially contracted basis set               ... on
Rotationally invariant grid construction     ... off
Angular grids for H and He will be reduced by one unit

Total number of grid points                  ...    30691
Total number of batches                      ...      251
Average number of points per batch           ...      122
Average number of grid points per atom       ...     1334
UseSFitting                                  ... on

GRIDX 3
-------
General Integration Accuracy     IntAcc      ... 4.338
Radial Grid Type                 RadialGrid  ... OptM3 with GC (2021)
Angular Grid (max. ang.)         AngularGrid ... 3 (Lebedev-194)
Angular grid pruning method      GridPruning ... 4 (adaptive)
Weight generation scheme         WeightScheme... mBecke (2022)
Basis function cutoff            BFCut       ... 1.0000e-11
Integration weight cutoff        WCut        ... 1.0000e-14
Partially contracted basis set               ... on
Rotationally invariant grid construction     ... off
Angular grids for H and He will be reduced by one unit

Total number of grid points                  ...    67383
Total number of batches                      ...      538
Average number of points per batch           ...      125
Average number of grid points per atom       ...     2930
UseSFitting                                  ... on
Grids setup in   2.3 sec
Initializing property integral containers    ... done (  0.0 sec)

SHARK setup successfully completed in   2.8 seconds

Maximum memory used throughout the entire STARTUP-calculation: 37.9 MB


           ************************************************************
           *        Program running with 2 parallel MPI-processes     *
           *              working on a common directory               *
           ************************************************************
-------------------------------------------------------------------------------
                                 ORCA GUESS
                   Start orbitals & Density for SCF / CASSCF
-------------------------------------------------------------------------------

------------
SCF SETTINGS
------------
Hamiltonian:
 Density Functional     Method          .... DFT(GTOs)
 Exchange Functional    Exchange        .... B88
   X-Alpha parameter    XAlpha          ....  0.666667
   Becke's b parameter  XBeta           ....  0.004200
 Correlation Functional Correlation     .... LYP
 LDA part of GGA corr.  LDAOpt          .... VWN-5
 Gradients option       PostSCFGGA      .... off
 Hybrid DFT is turned on
   Fraction HF Exchange ScalHFX         ....  0.200000
   Scaling of DF-GGA-X  ScalDFX         ....  0.720000
   Scaling of DF-GGA-C  ScalDFC         ....  0.810000
   Scaling of DF-LDA-C  ScalLDAC        ....  1.000000
   Perturbative correction              ....  0.000000
   NL short-range parameter             ....  4.800000
 RI-approximation to the Coulomb term is turned on
   Number of AuxJ basis functions       .... 747
   RIJ-COSX (HFX calculated with COS-X)).... on


General Settings:
 Integral files         IntName         .... /kaggle/working/Phe-F-1/Phe-F_InterFrag
 Hartree-Fock type      HFTyp           .... RHF
 Total Charge           Charge          ....    0
 Multiplicity           Mult            ....    1
 Number of Electrons    NEL             ....   96
 Basis Dimension        Dim             ....  232
 Nuclear Repulsion      ENuc            ....    773.8097962311 Eh

Convergence Acceleration:
 AO-DIIS                CNVDIIS         .... on
   Start iteration      DIISMaxIt       ....    12
   Startup error        DIISStart       ....  0.200000
   # of expansion vecs  DIISMaxEq       ....     5
   Bias factor          DIISBfac        ....   1.050
   Max. coefficient     DIISMaxC        ....  10.000
 MO-DIIS                CNVKDIIS        .... off
 Trust-Rad. Augm. Hess. CNVTRAH         .... auto
   Auto Start mean grad. ratio tolernc. ....  1.125000
   Auto Start start iteration           ....    50
   Auto Start num. interpolation iter.  ....    10
   Max. Number of Micro iterations      ....    24
   Max. Number of Macro iterations      .... Maxiter - #DIIS iter
   Number of Davidson start vectors     ....     2
   Converg. threshold    (grad. norm)   ....   1.000e-05
   Grad. Scal. Fac. for Micro threshold ....   0.100
   Minimum threshold for Micro iter.    ....   1.000e-02
   NR start threshold (gradient norm)   ....   1.000e-04
   Initial trust radius                 ....   0.400
   Minimum AH scaling param. (alpha)    ....   1.000
   Maximum AH scaling param. (alpha)    .... 1000.000
   Quad. conv. algorithm                .... NR
   White noise on init. David. guess    .... on
   Maximum white noise                  ....   0.010
   Pseudo random numbers                .... off
   Inactive MOs                         .... canonical
   Orbital update algorithm             .... Taylor
   Preconditioner                       .... Diag
   Full preconditioner red. dimension   ....   250
 SOSCF                 CNVSOSCF           .... on
   Start iteration     SOSCFMaxIt         ....   150
   Startup grad/error  SOSCFStart         ....  0.000330
   Hessian update      SOSCFHessUp        .... L-BFGS
   Autom. constraints  SOSCFAutoConstrain .... off
 Level Shifting         CNVShift        .... on
   Level shift para.    LevelShift      ....    0.2500
   Turn off err/grad.   ShiftErr        ....    0.0010
 Zerner damping         CNVZerner       .... off
 Static damping         CNVDamp         .... on
   Fraction old density DampFac         ....    0.7000
   Max. Damping (<1)    DampMax         ....    0.9800
   Min. Damping (>=0)   DampMin         ....    0.0000
   Turn off err/grad.   DampErr         ....    0.1000

SCF Procedure:
 Maximum # iterations   MaxIter         ....  1000
 SCF integral mode      SCFMode         .... Direct
   Integral package                     .... SHARK and LIBINT hybrid scheme
 Reset frequency        DirectResetFreq ....    20
 Integral Threshold     Thresh          ....  2.500e-11 Eh
 Primitive CutOff       TCut            ....  2.500e-12 Eh

Convergence Tolerance:
 Convergence Check Mode ConvCheckMode   .... Total+1el-Energy
 Convergence forced     ConvForced      .... 0
 Energy Change          TolE            ....  1.000e-08 Eh
 1-El. energy change                    ....  1.000e-05 Eh
 Orbital Gradient       TolG            ....  1.000e-05
 Orbital Rotation angle TolX            ....  1.000e-05
 DIIS Error             TolErr          ....  5.000e-07

------------------------------
INITIAL GUESS: MODEL POTENTIAL
------------------------------
Loading Hartree-Fock densities                     ... done
Calculating cut-offs                               ... done
Initializing the effective Hamiltonian             ... done
Setting up the integral package (SHARK)            ... done
Starting the Coulomb interaction                   ... done (   0.5 sec)
Making the grid                                    ... done (   0.3 sec)
Mapping shells                                     ... done
Starting the XC term evaluation                    ... done (   0.2 sec)
  promolecular density results
     # of electrons  =     96.002741285
     EX              =    -82.279906945
     EC              =     -3.309152952
     EX+EC           =    -85.589059898
Transforming the Hamiltonian                       ... done (   0.0 sec)
Diagonalizing the Hamiltonian                      ... done (   0.0 sec)
Back transforming the eigenvectors                 ... done (   0.0 sec)
Now organizing SCF variables                       ... done
                      ------------------
                      INITIAL GUESS DONE (   1.0 sec)
                      ------------------
             **** ENERGY FILE WAS UPDATED (/kaggle/working/Phe-F-1/Phe-F_InterFrag.en.tmp) ****
Finished Guess after   1.3 sec
Maximum memory used throughout the entire GUESS-calculation: 14.7 MB


           ************************************************************
           *        Program running with 2 parallel MPI-processes     *
           *              working on a common directory               *
           ************************************************************

-------------------------------------------------------------------------------------------
                                      ORCA LEAN-SCF
                              memory conserving SCF solver
-------------------------------------------------------------------------------------------

--------------------
CPCM SOLVATION MODEL
--------------------
CPCM parameters:
  Epsilon                                         ...      78.3550
  Refrac                                          ...       1.3328
  Rsolv                                           ...       1.3000
  Surface type                                    ... GAUSSIAN VDW
  Discretization scheme                           ... Constant charge density
    Threshold for H atoms                         ...       5.0000 (charges/Ang^2)
    Threshold for non-H atoms                     ...       5.0000 (charges/Ang^2)
  Epsilon function type                           ...         CPCM
Solvent:                                          ... WATER
SMD-CDS solvent descriptors:
  Soln                                            ...       1.3328
  Soln25                                          ...       1.3323
  Sola                                            ...       0.0000
  Solb                                            ...       0.0000
  Solg                                            ...       0.0000
  Solc                                            ...       0.0000
  Solh                                            ...       0.0000
Radii:
  Scheme                                          ... Element-dependent radii
  Radius for F  used is    3.2692 Bohr (=   1.7300 Ang.)
  Radius for O  used is    2.8724 Bohr (=   1.5200 Ang.)
  Radius for N  used is    3.5716 Bohr (=   1.8900 Ang.)
  Radius for C  used is    3.4960 Bohr (=   1.8500 Ang.)
  Radius for H  used is    2.2677 Bohr (=   1.2000 Ang.)
Calculating surface                               ...        done! (  0.0s)
Cavity surface points                             ...         1794
Cavity Volume                                     ...    1225.2637
Cavity Surface-area                               ...     750.1300
Calculating surface distance matrix               ...        done! (  0.1s)
Performing Cholesky decomposition & store         ...        done! (  0.1s)
Overall time for CPCM initialization              ...                 0.2s

----------------------------------------D-I-I-S--------------------------------------------
Iteration    Energy (Eh)           Delta-E    RMSDP     MaxDP     DIISErr   Damp  Time(sec)
-------------------------------------------------------------------------------------------
               ***  Starting incremental Fock matrix formation  ***
    1    -653.3304621848509441     0.00e+00  3.67e-03  8.65e-02  2.57e-01  0.700   6.1
    2    -653.4992732038427903    -1.69e-01  2.44e-03  5.08e-02  1.17e-01  0.700   3.2
                               ***Turning on AO-DIIS***
    3    -653.5650642523488614    -6.58e-02  9.84e-04  1.47e-02  3.68e-02  0.700   3.2
    4    -653.6047071839869886    -3.96e-02  1.61e-03  2.33e-02  1.69e-02  0.000   3.0
    5    -653.6916379260200074    -8.69e-02  3.55e-04  6.13e-03  5.99e-03  0.000   3.1
    6    -653.6921753879290691    -5.37e-04  1.15e-04  2.11e-03  2.24e-03  0.000   2.9
    7    -653.6922089475041275    -3.36e-05  4.50e-05  7.97e-04  7.66e-04  0.000   2.7
               *** Restarting incremental Fock matrix formation ***
                             ****Resetting DIIS****
    8    -653.6921953162885757     1.36e-05  3.27e-05  7.87e-04  4.75e-04  0.000   6.0
    9    -653.6921946840403734     6.32e-07  1.59e-05  5.65e-04  8.43e-04  0.000   4.0
                              *** Initializing SOSCF ***
---------------------------------------S-O-S-C-F--------------------------------------
Iteration    Energy (Eh)           Delta-E    RMSDP     MaxDP     MaxGrad    Time(sec)
--------------------------------------------------------------------------------------
   10    -653.6921962692014176    -1.59e-06  3.61e-06  1.01e-04  1.11e-04     3.5
               *** Restarting incremental Fock matrix formation ***
   11    -653.6921962773143377    -8.11e-09  4.43e-06  1.08e-04  2.78e-05     6.0
   12    -653.6921962550928811     2.22e-08  2.73e-06  7.99e-05  5.54e-05     3.1
   13    -653.6921963002072289    -4.51e-08  8.18e-07  1.72e-05  5.06e-06     2.8
   14    -653.6921962923953515     7.81e-09  5.19e-07  1.19e-05  8.12e-06     2.4
                 **** Energy Check signals convergence ****

               *****************************************************
               *                     SUCCESS                       *
               *           SCF CONVERGED AFTER  14 CYCLES          *
               *****************************************************

Recomputing exchange energy using gridx3       ... done (    9.052 sec)
Old exchange energy                            :    -16.693901236 Eh
New exchange energy                            :    -16.693874893 Eh
Exchange energy change after final integration :      0.000026343 Eh
Total energy after final integration           :   -653.692169954 Eh

SMD CDS free energy correction energy :                 5.08563     Kcal/mol
Total Energy after SMD CDS correction =              -653.684065493 Eh
             **** ENERGY FILE WAS UPDATED (/kaggle/working/Phe-F-1/Phe-F_InterFrag.en.tmp) ****

----------------
TOTAL SCF ENERGY
----------------

Total Energy       :       -653.68406549263136 Eh          -17787.64773 eV

Components:
Nuclear Repulsion  :        773.80979623106862 Eh           21056.43504 eV
Electronic Energy  :      -1427.47042422327218 Eh          -38843.44501 eV
One Electron Energy:      -2428.51840977998472 Eh          -66083.34554 eV
Two Electron Energy:       1001.04798555671255 Eh           27239.90054 eV
CPCM Dielectric    :         -0.03156830523377 Eh              -0.85902 eV
SMD CDS (Gcds)     :          0.00810446161444 Eh               0.22053 eV

Virial components:
Potential Energy   :      -1303.54450967839193 Eh          -35471.24943 eV
Kinetic Energy     :        649.86044418576068 Eh           17683.60170 eV
Virial Ratio       :          2.00588375756838

DFT components:
N(Alpha)           :       47.999941695504 electrons
N(Beta)            :       47.999941695504 electrons
N(Total)           :       95.999883391009 electrons
E(X)               :      -66.333365486123 Eh       
E(C)               :       -3.900300919603 Eh       
E(XC)              :      -70.233666405726 Eh       

CPCM Solvation Model Properties:
Surface-charge          :         -0.03065696853946
Corrected charge        :         -0.00000000000000
Outlying charge corr.   :          0.00006334511745 Eh               0.00172 eV
Free-energy (cav+disp)  :          0.00810446161444 Eh               0.22053 eV

---------------
SCF CONVERGENCE
---------------

  Last Energy change         ...   -7.8119e-09  Tolerance :   1.0000e-08
  Last MAX-Density change    ...    1.1904e-05  Tolerance :   1.0000e-07
  Last RMS-Density change    ...    5.1918e-07  Tolerance :   5.0000e-09
  Last DIIS Error            ...    1.1063e-04  Tolerance :   5.0000e-07
  Last Orbital Gradient      ...    8.1172e-06  Tolerance :   1.0000e-05
  Last Orbital Rotation      ...    6.6326e-06  Tolerance :   1.0000e-05


----------------
ORBITAL ENERGIES
----------------

  NO   OCC          E(Eh)            E(eV) 
   0   2.0000     -24.699206      -672.0996 
   1   2.0000     -19.188769      -522.1530 
   2   2.0000     -19.141243      -520.8597 
   3   2.0000     -14.300785      -389.1441 
   4   2.0000     -10.320310      -280.8299 
   5   2.0000     -10.260682      -279.2073 
   6   2.0000     -10.217333      -278.0278 
   7   2.0000     -10.181737      -277.0591 
   8   2.0000     -10.181485      -277.0523 
   9   2.0000     -10.180442      -277.0239 
  10   2.0000     -10.180025      -277.0126 
  11   2.0000     -10.179617      -277.0015 
  12   2.0000     -10.175372      -276.8859 
  13   2.0000      -1.218964       -33.1697 
  14   2.0000      -1.095437       -29.8083 
  15   2.0000      -1.011293       -27.5187 
  16   2.0000      -0.885087       -24.0844 
  17   2.0000      -0.855927       -23.2910 
  18   2.0000      -0.772542       -21.0219 
  19   2.0000      -0.746202       -20.3052 
  20   2.0000      -0.715273       -19.4636 
  21   2.0000      -0.663820       -18.0634 
  22   2.0000      -0.615153       -16.7392 
  23   2.0000      -0.594118       -16.1668 
  24   2.0000      -0.573110       -15.5951 
  25   2.0000      -0.535608       -14.5746 
  26   2.0000      -0.520015       -14.1503 
  27   2.0000      -0.486567       -13.2402 
  28   2.0000      -0.480348       -13.0709 
  29   2.0000      -0.468084       -12.7372 
  30   2.0000      -0.459693       -12.5089 
  31   2.0000      -0.455347       -12.3906 
  32   2.0000      -0.436108       -11.8671 
  33   2.0000      -0.427858       -11.6426 
  34   2.0000      -0.418924       -11.3995 
  35   2.0000      -0.413647       -11.2559 
  36   2.0000      -0.405443       -11.0327 
  37   2.0000      -0.386572       -10.5192 
  38   2.0000      -0.375144       -10.2082 
  39   2.0000      -0.354366        -9.6428 
  40   2.0000      -0.348891        -9.4938 
  41   2.0000      -0.339881        -9.2486 
  42   2.0000      -0.332905        -9.0588 
  43   2.0000      -0.318959        -8.6793 
  44   2.0000      -0.280702        -7.6383 
  45   2.0000      -0.251725        -6.8498 
  46   2.0000      -0.243307        -6.6207 
  47   2.0000      -0.222513        -6.0549 
  48   0.0000      -0.003937        -0.1071 
  49   0.0000       0.001476         0.0402 
  50   0.0000       0.013296         0.3618 
  51   0.0000       0.096405         2.6233 
  52   0.0000       0.102803         2.7974 
  53   0.0000       0.111117         3.0237 
  54   0.0000       0.135622         3.6905 
  55   0.0000       0.144722         3.9381 
  56   0.0000       0.160969         4.3802 
  57   0.0000       0.168478         4.5845 
  58   0.0000       0.175844         4.7850 
  59   0.0000       0.187239         5.0950 
  60   0.0000       0.195689         5.3250 
  61   0.0000       0.203793         5.5455 
  62   0.0000       0.209654         5.7050 
  63   0.0000       0.220393         5.9972 
  64   0.0000       0.258630         7.0377 
  65   0.0000       0.261427         7.1138 
  66   0.0000       0.282078         7.6757 
  67   0.0000       0.320453         8.7200 
  68   0.0000       0.331261         9.0141 
  69   0.0000       0.344575         9.3764 
  70   0.0000       0.355929         9.6853 
  71   0.0000       0.360236         9.8025 
  72   0.0000       0.371786        10.1168 
  73   0.0000       0.487542        13.2667 
  74   0.0000       0.503733        13.7073 
  75   0.0000       0.513564        13.9748 
  76   0.0000       0.535760        14.5788 
  77   0.0000       0.541299        14.7295 
  78   0.0000       0.546385        14.8679 
  79   0.0000       0.551886        15.0176 
  80   0.0000       0.579746        15.7757 
  81   0.0000       0.593493        16.1498 
  82   0.0000       0.597319        16.2539 
  83   0.0000       0.602096        16.3839 
  84   0.0000       0.611822        16.6485 
  85   0.0000       0.616152        16.7664 
  86   0.0000       0.637476        17.3466 
  87   0.0000       0.646289        17.5864 
  88   0.0000       0.652508        17.7557 
  89   0.0000       0.656369        17.8607 
  90   0.0000       0.664696        18.0873 
  91   0.0000       0.694545        18.8995 
  92   0.0000       0.716181        19.4883 
  93   0.0000       0.728538        19.8245 
  94   0.0000       0.756746        20.5921 
  95   0.0000       0.760816        20.7029 
  96   0.0000       0.786829        21.4107 
  97   0.0000       0.794250        21.6126 
  98   0.0000       0.808561        22.0021 
  99   0.0000       0.814874        22.1738 
 100   0.0000       0.827033        22.5047 
 101   0.0000       0.835530        22.7359 
 102   0.0000       0.857608        23.3367 
 103   0.0000       0.861077        23.4311 
 104   0.0000       0.867928        23.6175 
 105   0.0000       0.878316        23.9002 
 106   0.0000       0.889823        24.2133 
 107   0.0000       0.900183        24.4952 
 108   0.0000       0.908396        24.7187 
 109   0.0000       0.926217        25.2037 
 110   0.0000       0.945252        25.7216 
 111   0.0000       0.965820        26.2813 
 112   0.0000       0.975270        26.5384 
 113   0.0000       0.986486        26.8436 
 114   0.0000       1.000498        27.2249 
 115   0.0000       1.007483        27.4150 
 116   0.0000       1.016323        27.6556 
 117   0.0000       1.053457        28.6660 
 118   0.0000       1.095284        29.8042 
 119   0.0000       1.107896        30.1474 
 120   0.0000       1.147695        31.2304 
 121   0.0000       1.156184        31.4614 
 122   0.0000       1.174772        31.9672 
 123   0.0000       1.188141        32.3310 
 124   0.0000       1.213169        33.0120 
 125   0.0000       1.224499        33.3203 
 126   0.0000       1.250789        34.0357 
 127   0.0000       1.258518        34.2460 
 128   0.0000       1.342200        36.5231 
 129   0.0000       1.361881        37.0587 
 130   0.0000       1.375598        37.4319 
 131   0.0000       1.395691        37.9787 
 132   0.0000       1.403370        38.1876 
 133   0.0000       1.409568        38.3563 
 134   0.0000       1.410324        38.3769 
 135   0.0000       1.427155        38.8349 
 136   0.0000       1.440533        39.1989 
 137   0.0000       1.456442        39.6318 
 138   0.0000       1.483857        40.3778 
 139   0.0000       1.501435        40.8561 
 140   0.0000       1.504488        40.9392 
 141   0.0000       1.567709        42.6595 
 142   0.0000       1.601611        43.5820 
 143   0.0000       1.686999        45.9056 
 144   0.0000       1.711627        46.5757 
 145   0.0000       1.722659        46.8759 
 146   0.0000       1.748497        47.5790 
 147   0.0000       1.764661        48.0189 
 148   0.0000       1.774563        48.2883 
 149   0.0000       1.790730        48.7282 
 150   0.0000       1.794778        48.8384 
 151   0.0000       1.816247        49.4226 
 152   0.0000       1.822017        49.5796 
 153   0.0000       1.826900        49.7125 
 154   0.0000       1.852259        50.4025 
 155   0.0000       1.865463        50.7618 
 156   0.0000       1.906651        51.8826 
 157   0.0000       1.912985        52.0550 
 158   0.0000       1.922591        52.3164 
 159   0.0000       1.927502        52.4500 
 160   0.0000       1.935641        52.6715 
 161   0.0000       1.942853        52.8677 
 162   0.0000       1.963573        53.4315 
 163   0.0000       1.979226        53.8575 
 164   0.0000       1.990766        54.1715 
 165   0.0000       1.994313        54.2680 
 166   0.0000       2.005156        54.5631 
 167   0.0000       2.013779        54.7977 
 168   0.0000       2.082654        56.6719 
 169   0.0000       2.105518        57.2941 
 170   0.0000       2.118816        57.6559 
 171   0.0000       2.138206        58.1836 
 172   0.0000       2.197849        59.8065 
 173   0.0000       2.217993        60.3547 
 174   0.0000       2.238937        60.9246 
 175   0.0000       2.260922        61.5228 
 176   0.0000       2.269223        61.7487 
 177   0.0000       2.282041        62.0975 
 178   0.0000       2.289854        62.3101 
 179   0.0000       2.300370        62.5963 
 180   0.0000       2.308176        62.8087 
 181   0.0000       2.329289        63.3832 
 182   0.0000       2.338463        63.6328 
 183   0.0000       2.359832        64.2143 
 184   0.0000       2.372344        64.5548 
 185   0.0000       2.376576        64.6699 
 186   0.0000       2.422780        65.9272 
 187   0.0000       2.434179        66.2374 
 188   0.0000       2.456139        66.8349 
 189   0.0000       2.462993        67.0214 
 190   0.0000       2.481268        67.5187 
 191   0.0000       2.488340        67.7112 
 192   0.0000       2.509297        68.2814 
 193   0.0000       2.510373        68.3107 
 194   0.0000       2.534533        68.9682 
 195   0.0000       2.538847        69.0855 
 196   0.0000       2.556042        69.5534 
 197   0.0000       2.597010        70.6682 
 198   0.0000       2.604452        70.8707 
 199   0.0000       2.632025        71.6211 
 200   0.0000       2.664106        72.4940 
 201   0.0000       2.676146        72.8216 
 202   0.0000       2.688449        73.1564 
 203   0.0000       2.717943        73.9590 
 204   0.0000       2.733565        74.3841 
 205   0.0000       2.756476        75.0075 
 206   0.0000       2.761049        75.1320 
 207   0.0000       2.788704        75.8845 
 208   0.0000       2.815977        76.6266 
 209   0.0000       2.837606        77.2152 
 210   0.0000       2.858377        77.7804 
 211   0.0000       2.883443        78.4625 
 212   0.0000       2.902106        78.9703 
 213   0.0000       2.923914        79.5637 
 214   0.0000       2.980702        81.1090 
 215   0.0000       3.049091        82.9700 
 216   0.0000       3.056965        83.1843 
 217   0.0000       3.090266        84.0904 
 218   0.0000       3.110979        84.6540 
 219   0.0000       3.177426        86.4622 
 220   0.0000       3.209999        87.3485 
 221   0.0000       3.258482        88.6678 
 222   0.0000       3.312734        90.1441 
 223   0.0000       3.329724        90.6064 
 224   0.0000       3.365108        91.5693 
 225   0.0000       3.372883        91.7808 
 226   0.0000       3.383990        92.0830 
 227   0.0000       3.457101        94.0725 
 228   0.0000       3.529440        96.0410 
 229   0.0000       3.536976        96.2460 
 230   0.0000       3.562666        96.9451 
 231   0.0000       3.871750       105.3557 

                    ********************************
                    * MULLIKEN POPULATION ANALYSIS *
                    ********************************

-----------------------
MULLIKEN ATOMIC CHARGES
-----------------------
   0 F :   -0.323576
   1 O :   -0.504354
   2 O :   -0.510745
   3 N :   -0.625664
   4 C :   -0.250728
   5 C :   -0.006911
   6 C :    0.078043
   7 C :   -0.117105
   8 C :   -0.117207
   9 C :    0.583534
  10 C :   -0.181741
  11 C :   -0.179573
  12 C :    0.369691
  13 H :    0.123742
  14 H :    0.127419
  15 H :    0.142997
  16 H :    0.122826
  17 H :    0.121826
  18 H :    0.268357
  19 H :    0.260840
  20 H :    0.122489
  21 H :    0.122789
  22 H :    0.373051
Sum of atomic charges:    0.0000000

--------------------------------
MULLIKEN REDUCED ORBITAL CHARGES
--------------------------------
  0 F s       :     3.964124  s :     3.964124
      pz      :     1.891091  p :     5.342289
      px      :     1.561521
      py      :     1.889677
      dz2     :     0.002095  d :     0.017162
      dxz     :     0.004488
      dyz     :     0.000706
      dx2y2   :     0.005210
      dxy     :     0.004663

  1 O s       :     3.827552  s :     3.827552
      pz      :     1.682800  p :     4.655787
      px      :     1.678575
      py      :     1.294413
      dz2     :     0.004613  d :     0.021015
      dxz     :     0.004369
      dyz     :     0.002659
      dx2y2   :     0.003921
      dxy     :     0.005452

  2 O s       :     3.848372  s :     3.848372
      pz      :     1.469791  p :     4.636692
      px      :     1.413449
      py      :     1.753452
      dz2     :     0.005741  d :     0.025681
      dxz     :     0.006502
      dyz     :     0.002874
      dx2y2   :     0.005751
      dxy     :     0.004813

  3 N s       :     3.589795  s :     3.589795
      pz      :     1.445937  p :     4.007290
      px      :     1.391754
      py      :     1.169598
      dz2     :     0.010669  d :     0.028580
      dxz     :     0.003561
      dyz     :     0.000646
      dx2y2   :     0.007142
      dxy     :     0.006561

  4 C s       :     3.237774  s :     3.237774
      pz      :     0.979787  p :     2.975404
      px      :     0.937383
      py      :     1.058233
      dz2     :     0.008555  d :     0.037551
      dxz     :     0.008777
      dyz     :     0.004538
      dx2y2   :     0.010593
      dxy     :     0.005088

  5 C s       :     3.193404  s :     3.193404
      pz      :     1.013959  p :     2.756785
      px      :     0.877378
      py      :     0.865449
      dz2     :     0.012402  d :     0.056722
      dxz     :     0.012979
      dyz     :     0.004570
      dx2y2   :     0.014256
      dxy     :     0.012514

  6 C s       :     3.138536  s :     3.138536
      pz      :     0.939067  p :     2.741496
      px      :     0.910366
      py      :     0.892062
      dz2     :     0.005333  d :     0.041926
      dxz     :     0.006782
      dyz     :     0.006435
      dx2y2   :     0.011712
      dxy     :     0.011662

  7 C s       :     3.185757  s :     3.185757
      pz      :     0.992357  p :     2.895833
      px      :     0.947201
      py      :     0.956276
      dz2     :     0.003020  d :     0.035514
      dxz     :     0.006169
      dyz     :     0.005944
      dx2y2   :     0.009730
      dxy     :     0.010652

  8 C s       :     3.186293  s :     3.186293
      pz      :     0.975513  p :     2.895452
      px      :     0.937801
      py      :     0.982138
      dz2     :     0.004415  d :     0.035463
      dxz     :     0.006516
      dyz     :     0.004406
      dx2y2   :     0.010314
      dxy     :     0.009812

  9 C s       :     2.987485  s :     2.987485
      pz      :     0.724385  p :     2.309395
      px      :     0.731289
      py      :     0.853722
      dz2     :     0.021353  d :     0.119585
      dxz     :     0.020244
      dyz     :     0.021529
      dx2y2   :     0.023774
      dxy     :     0.032685

 10 C s       :     3.199987  s :     3.199987
      pz      :     1.002988  p :     2.948303
      px      :     0.968270
      py      :     0.977045
      dz2     :     0.004445  d :     0.033452
      dxz     :     0.006443
      dyz     :     0.003942
      dx2y2   :     0.008206
      dxy     :     0.010416

 11 C s       :     3.199572  s :     3.199572
      pz      :     1.016373  p :     2.946546
      px      :     0.988668
      py      :     0.941505
      dz2     :     0.003026  d :     0.033455
      dxz     :     0.006282
      dyz     :     0.005315
      dx2y2   :     0.008980
      dxy     :     0.009853

 12 C s       :     3.081771  s :     3.081771
      pz      :     0.967007  p :     2.473741
      px      :     0.613808
      py      :     0.892926
      dz2     :     0.008468  d :     0.074797
      dxz     :     0.014668
      dyz     :     0.008169
      dx2y2   :     0.022420
      dxy     :     0.021072

 13 H s       :     0.864723  s :     0.864723
      pz      :     0.006040  p :     0.011535
      px      :     0.002498
      py      :     0.002997

 14 H s       :     0.861006  s :     0.861006
      pz      :     0.002364  p :     0.011575
      px      :     0.002104
      py      :     0.007108

 15 H s       :     0.846021  s :     0.846021
      pz      :     0.006576  p :     0.010982
      px      :     0.002546
      py      :     0.001859

 16 H s       :     0.864766  s :     0.864766
      pz      :     0.003911  p :     0.012408
      px      :     0.004210
      py      :     0.004286

 17 H s       :     0.865761  s :     0.865761
      pz      :     0.002924  p :     0.012413
      px      :     0.002463
      py      :     0.007026

 18 H s       :     0.708186  s :     0.708186
      pz      :     0.006052  p :     0.023456
      px      :     0.005473
      py      :     0.011932

 19 H s       :     0.715622  s :     0.715622
      pz      :     0.011807  p :     0.023538
      px      :     0.007166
      py      :     0.004566

 20 H s       :     0.865051  s :     0.865051
      pz      :     0.002962  p :     0.012461
      px      :     0.002454
      py      :     0.007045

 21 H s       :     0.864744  s :     0.864744
      pz      :     0.003957  p :     0.012468
      px      :     0.004232
      py      :     0.004278

 22 H s       :     0.589942  s :     0.589942
      pz      :     0.007181  p :     0.037008
      px      :     0.008457
      py      :     0.021370


------------------------
MULLIKEN OVERLAP CHARGES
------------------------
B(  0-F , 10-C ) :  -0.0945 B(  0-F , 11-C ) :  -0.0946 B(  0-F , 12-C ) :   0.5766 
B(  1-O ,  2-O ) :  -0.1586 B(  1-O ,  5-C ) :  -0.1562 B(  1-O ,  9-C ) :   0.6045 
B(  1-O , 22-H ) :   0.5596 B(  2-O ,  5-C ) :  -0.1559 B(  2-O ,  9-C ) :   1.2205 
B(  3-N ,  4-C ) :  -0.1350 B(  3-N ,  5-C ) :   0.6323 B(  3-N ,  9-C ) :  -0.0906 
B(  3-N , 15-H ) :  -0.0746 B(  3-N , 18-H ) :   0.6975 B(  3-N , 19-H ) :   0.6877 
B(  4-C ,  5-C ) :   0.7148 B(  4-C ,  6-C ) :   0.6231 B(  4-C ,  7-C ) :  -0.1049 
B(  4-C ,  8-C ) :  -0.1086 B(  4-C ,  9-C ) :  -0.0613 B(  4-C , 13-H ) :   0.7217 
B(  4-C , 14-H ) :   0.7555 B(  4-C , 15-H ) :  -0.0897 B(  5-C ,  6-C ) :  -0.0814 
B(  5-C ,  9-C ) :   0.6277 B(  5-C , 13-H ) :  -0.0695 B(  5-C , 14-H ) :  -0.0642 
B(  5-C , 15-H ) :   0.7553 B(  5-C , 18-H ) :  -0.0726 B(  5-C , 19-H ) :  -0.0801 
B(  6-C ,  7-C ) :   1.0855 B(  6-C ,  8-C ) :   1.0970 B(  6-C , 12-C ) :  -0.0815 
B(  6-C , 14-H ) :  -0.0602 B(  6-C , 16-H ) :  -0.0791 B(  6-C , 17-H ) :  -0.0781 
B(  7-C ,  8-C ) :  -0.0802 B(  7-C , 10-C ) :   0.8884 B(  7-C , 11-C ) :  -0.0863 
B(  7-C , 16-H ) :   0.7521 B(  7-C , 20-H ) :  -0.0673 B(  8-C , 10-C ) :  -0.0853 
B(  8-C , 11-C ) :   0.8970 B(  8-C , 17-H ) :   0.7513 B(  8-C , 21-H ) :  -0.0682 
B(  9-C , 15-H ) :  -0.0662 B( 10-C , 11-C ) :  -0.1240 B( 10-C , 12-C ) :   0.9606 
B( 10-C , 16-H ) :  -0.0757 B( 10-C , 20-H ) :   0.7227 B( 11-C , 12-C ) :   0.9599 
B( 11-C , 17-H ) :  -0.0769 B( 11-C , 21-H ) :   0.7235 B( 12-C , 20-H ) :  -0.0754 
B( 12-C , 21-H ) :  -0.0753 B( 13-H , 14-H ) :  -0.0663 B( 18-H , 19-H ) :  -0.0603 



                     *******************************
                     * LOEWDIN POPULATION ANALYSIS *
                     *******************************

----------------------
LOEWDIN ATOMIC CHARGES
----------------------
   0 F :   -0.104801
   1 O :   -0.163117
   2 O :   -0.295041
   3 N :   -0.280881
   4 C :   -0.117343
   5 C :   -0.034255
   6 C :   -0.029444
   7 C :   -0.075108
   8 C :   -0.073264
   9 C :    0.174124
  10 C :   -0.106557
  11 C :   -0.105910
  12 C :    0.094479
  13 H :    0.083662
  14 H :    0.086821
  15 H :    0.092410
  16 H :    0.089486
  17 H :    0.089791
  18 H :    0.139455
  19 H :    0.134591
  20 H :    0.091393
  21 H :    0.091647
  22 H :    0.217862

-------------------------------
LOEWDIN REDUCED ORBITAL CHARGES
-------------------------------
  0 F s       :     3.723537  s :     3.723537
      pz      :     1.883485  p :     5.345243
      px      :     1.578766
      py      :     1.882992
      dz2     :     0.004406  d :     0.036021
      dxz     :     0.009428
      dyz     :     0.001436
      dx2y2   :     0.010974
      dxy     :     0.009777

  1 O s       :     3.476317  s :     3.476317
      pz      :     1.668050  p :     4.641509
      px      :     1.670363
      py      :     1.303096
      dz2     :     0.007673  d :     0.045291
      dxz     :     0.007841
      dyz     :     0.007899
      dx2y2   :     0.009950
      dxy     :     0.011929

  2 O s       :     3.560796  s :     3.560796
      pz      :     1.481278  p :     4.682328
      px      :     1.462399
      py      :     1.738651
      dz2     :     0.008066  d :     0.051916
      dxz     :     0.016272
      dyz     :     0.005726
      dx2y2   :     0.010884
      dxy     :     0.010968

  3 N s       :     3.197093  s :     3.197093
      pz      :     1.432481  p :     4.027988
      px      :     1.409360
      py      :     1.186147
      dz2     :     0.017236  d :     0.055799
      dxz     :     0.007751
      dyz     :     0.001853
      dx2y2   :     0.014598
      dxy     :     0.014362

  4 C s       :     2.898709  s :     2.898709
      pz      :     1.048564  p :     3.136693
      px      :     1.010531
      py      :     1.077599
      dz2     :     0.017586  d :     0.081940
      dxz     :     0.020874
      dyz     :     0.009108
      dx2y2   :     0.023457
      dxy     :     0.010915

  5 C s       :     2.881424  s :     2.881424
      pz      :     1.068153  p :     3.026538
      px      :     0.981684
      py      :     0.976701
      dz2     :     0.026478  d :     0.126293
      dxz     :     0.029347
      dyz     :     0.009204
      dx2y2   :     0.031897
      dxy     :     0.029367

  6 C s       :     2.868523  s :     2.868523
      pz      :     0.984354  p :     3.055914
      px      :     1.020252
      py      :     1.051308
      dz2     :     0.011639  d :     0.105007
      dxz     :     0.014940
      dyz     :     0.016672
      dx2y2   :     0.031353
      dxy     :     0.030403

  7 C s       :     2.894860  s :     2.894860
[...]
10 C  dz2             0.0       0.4       0.0       0.2
10 C  dxz             0.0       0.9       0.0       2.1
10 C  dyz             0.0       2.3       0.1       2.3
10 C  dx2y2           0.0       3.4       0.1       5.7
10 C  dxy             0.3       1.6       0.0       1.5
11 C  s               0.0       0.7       0.0       0.3
11 C  pz              0.0       0.5       0.0       0.4
11 C  px              0.0       0.9       0.0       0.4
11 C  py              0.1       0.1       0.0       0.2
11 C  dz2             0.0       0.2       0.0       0.6
11 C  dxz             0.2       3.5       0.0       3.6
11 C  dyz             0.0       1.5       0.0       1.4
11 C  dx2y2           0.2       0.2       0.0       0.2
11 C  dxy             0.0       3.5       0.0       6.1
12 C  py              0.0       0.1       0.0       0.0
12 C  dz2             0.0       0.0       0.0       0.7
12 C  dxz             0.1       0.3       0.0       0.1
12 C  dyz             0.0       0.0       0.0       1.5
12 C  dx2y2           0.1       0.2       0.0       2.8
12 C  dxy             0.0       0.4       0.0       2.0
13 H  s               4.0       0.0       1.1       0.1
13 H  pz             11.5       0.0       4.0       0.2
13 H  px              1.7       0.0       0.1       0.0
13 H  py              1.3       0.0       0.2       0.0
14 H  s               4.0       0.0       0.6       0.0
14 H  px              0.0       0.0       0.1       0.0
14 H  py             14.7       0.1       2.0       0.1
15 H  s               0.0       0.0       5.0       0.0
15 H  pz              0.0       0.0      15.0       0.0
15 H  px              0.4       0.0       2.0       0.0
15 H  py              0.0       0.0       2.3       0.0
16 H  s               0.0       2.6       0.0       2.1
16 H  pz              0.1       4.1       0.0       2.1
16 H  px              0.0       2.9       0.1       2.1
16 H  py              0.3       3.6       0.0       1.4
17 H  s               0.0       2.5       0.0       2.0
17 H  pz              0.2       2.2       0.0       0.9
17 H  px              0.1       0.3       0.0       0.4
17 H  py              0.1       8.1       0.0       4.2
18 H  s               2.7       0.1       2.6       0.0
18 H  pz              0.2       0.0       0.1       0.0
18 H  py              7.0       0.1       5.8       0.0
19 H  s               2.5       0.1       3.2       0.0
19 H  pz              5.3       0.1       5.3       0.0
19 H  px              0.7       0.0       1.9       0.0
19 H  py              0.7       0.0       0.3       0.0
20 H  s               0.0       2.6       0.0       2.2
20 H  pz              0.1       1.9       0.0       0.9
20 H  px              0.1       0.6       0.0       0.6
20 H  py              0.0       8.1       0.1       4.3
21 H  s               0.0       2.7       0.0       2.1
21 H  pz              0.1       4.1       0.0       2.1
21 H  px              0.0       3.8       0.0       2.4
21 H  py              0.3       3.0       0.0       1.2
22 H  s               0.1       0.0       1.2       0.0
22 H  py              0.2       0.0       2.3       0.0


                      *****************************
                      * MAYER POPULATION ANALYSIS *
                      *****************************

  NA   - Mulliken gross atomic population
  ZA   - Total nuclear charge
  QA   - Mulliken gross atomic charge
  VA   - Mayer's total valence
  BVA  - Mayer's bonded valence
  FA   - Mayer's free valence

  ATOM       NA         ZA         QA         VA         BVA        FA
  0 F      9.3375     9.0000    -0.3375     1.0164     1.0164     0.0000
  1 O      8.4868     8.0000    -0.4868     2.0425     2.0425    -0.0000
  2 O      8.5142     8.0000    -0.5142     2.0168     2.0168     0.0000
  3 N      7.6221     7.0000    -0.6221     2.8462     2.8462    -0.0000
  4 C      6.2509     6.0000    -0.2509     3.8665     3.8665     0.0000
  5 C      6.0047     6.0000    -0.0047     3.8520     3.8520    -0.0000
  6 C      5.9132     6.0000     0.0868     3.9416     3.9416     0.0000
  7 C      6.1376     6.0000    -0.1376     3.9222     3.9222    -0.0000
  8 C      6.1349     6.0000    -0.1349     3.9201     3.9201     0.0000
  9 C      5.4291     6.0000     0.5709     3.9455     3.9455     0.0000
 10 C      6.1650     6.0000    -0.1650     3.8761     3.8761     0.0000
 11 C      6.1637     6.0000    -0.1637     3.8766     3.8766     0.0000
 12 C      5.6336     6.0000     0.3664     3.8210     3.8210    -0.0000
 13 H      0.8767     1.0000     0.1233     0.9572     0.9572     0.0000
 14 H      0.8694     1.0000     0.1306     0.9531     0.9531     0.0000
 15 H      0.8650     1.0000     0.1350     0.9502     0.9502     0.0000
 16 H      0.8789     1.0000     0.1211     0.9592     0.9592    -0.0000
 17 H      0.8791     1.0000     0.1209     0.9554     0.9554     0.0000
 18 H      0.7284     1.0000     0.2716     0.9081     0.9081    -0.0000
 19 H      0.7372     1.0000     0.2628     0.9216     0.9216     0.0000
 20 H      0.8706     1.0000     0.1294     0.9539     0.9539     0.0000
 21 H      0.8707     1.0000     0.1293     0.9539     0.9539     0.0000
 22 H      0.6306     1.0000     0.3694     0.8775     0.8775     0.0000

  Mayer bond orders larger than 0.100000
B(  0-F , 12-C ) :   0.8906 B(  1-O ,  9-C ) :   1.1254 B(  1-O , 22-H ) :   0.8249 
B(  2-O ,  9-C ) :   1.8539 B(  3-N ,  5-C ) :   1.0176 B(  3-N , 18-H ) :   0.8977 
B(  3-N , 19-H ) :   0.8917 B(  4-C ,  5-C ) :   0.9562 B(  4-C ,  6-C ) :   0.9840 
B(  4-C , 13-H ) :   0.9369 B(  4-C , 14-H ) :   0.9366 B(  5-C ,  9-C ) :   0.9305 
B(  5-C , 15-H ) :   0.9295 B(  6-C ,  7-C ) :   1.4231 B(  6-C ,  8-C ) :   1.4230 
B(  7-C , 10-C ) :   1.4081 B(  7-C , 16-H ) :   0.9333 B(  8-C , 11-C ) :   1.4130 
B(  8-C , 17-H ) :   0.9358 B( 10-C , 12-C ) :   1.4001 B( 10-C , 20-H ) :   0.9312 
B( 11-C , 12-C ) :   1.3961 B( 11-C , 21-H ) :   0.9312 

-------
TIMINGS
-------

Total SCF time: 0 days 0 hours 0 min 42 sec 

Total time                  ....      42.645 sec
Sum of individual times     ....      40.332 sec  ( 94.6%)

SCF preparation             ....       0.508 sec  (  1.2%)
Fock matrix formation       ....      39.315 sec  ( 92.2%)
  Startup                   ....       0.005 sec  (  0.0% of F)
  Split-RI-J                ....       2.860 sec  (  7.3% of F)
  Chain of spheres X        ....      31.174 sec  ( 79.3% of F)
  XC integration            ....       4.376 sec  ( 11.1% of F)
    Basis function eval.    ....       1.650 sec  ( 37.7% of XC)
    Density eval.           ....       0.991 sec  ( 22.6% of XC)
    XC-Functional eval.     ....       0.235 sec  (  5.4% of XC)
    XC-Potential eval.      ....       1.206 sec  ( 27.6% of XC)
  CPCM terms                ....       3.109 sec  (  7.9% of F)
Diagonalization             ....       0.000 sec  (  0.0%)
Density matrix formation    ....       0.019 sec  (  0.0%)
Total Energy calculation    ....       0.012 sec  (  0.0%)
Population analysis         ....       0.295 sec  (  0.7%)
Orbital Transformation      ....       0.027 sec  (  0.1%)
Orbital Orthonormalization  ....       0.000 sec  (  0.0%)
DIIS solution               ....       0.118 sec  (  0.3%)
  MO trafo                  ....       0.015 sec  ( 12.3 % of DIIS)
  Orb grad                  ....       0.000 sec  (  0.0 % of DIIS)
  Energy W gradient         ....       0.000 sec  (  0.0 % of DIIS)
  DIIS error                ....       0.024 sec  ( 20.0 % of DIIS)
  DIIS work                 ....       0.062 sec  ( 53.0 % of DIIS)
  Form Q                    ....       0.000 sec  (  0.0 % of DIIS)
  Form QpQm                 ....       0.000 sec  (  0.0 % of DIIS)
  Exp/Cayley                ....       0.000 sec  (  0.0 % of DIIS)
  Orb update                ....       0.000 sec  (  0.0 % of DIIS)
  Wake-sleep                ....       0.004 sec  (  3.3 % of DIIS)
SOSCF solution              ....       0.038 sec  (  0.1%)
  MO trafo                  ....       0.020 sec  ( 50.9 % of SOSCF)
  Orb grad                  ....       0.001 sec  (  2.5 % of SOSCF)
  Rot update                ....       0.002 sec  (  4.0 % of SOSCF)
  Step                      ....       0.014 sec  ( 36.6 % of SOSCF)
Finished LeanSCF after  42.8 sec

Maximum memory used throughout the entire LEANSCF-calculation: 37.1 MB


-------------------------------------------------------------------------------
                          DFT DISPERSION CORRECTION                            
                                                                               
                              DFTD3 V3.1  Rev 1                                
                          USING Becke-Johnson damping                          
-------------------------------------------------------------------------------
The B3LYP functional is recognized
Active option DFTDOPT                   ...         4   

molecular C6(AA) [au] = 5526.041878 


            DFT-D V3
 parameters
 s6 scaling factor         :     1.0000 
 a1 scaling factor         :     0.3981 
 s8 scaling factor         :     1.9889 
 a2 scaling factor         :     4.4211 
 ad hoc parameters k1-k3   :    16.0000     1.3333    -4.0000 

 Edisp/kcal,au: -27.368836847483  -0.043615013094 
 E6   /kcal   : -12.975824186 
 E8   /kcal   : -14.393012662 
 % E8         :  52.589054997 

-------------------------   ----------------
Dispersion correction           -0.043615013
-------------------------   ----------------


-------------------------   --------------------
FINAL SINGLE POINT ENERGY      -653.735082639081
-------------------------   --------------------

                                *** OPTIMIZATION RUN DONE ***



           ************************************************************
           *        Program running with 2 parallel MPI-processes     *
           *              working on a common directory               *
           ************************************************************

------------------------------------------------------------------------------
                              ORCA PROPERTY CALCULATIONS
------------------------------------------------------------------------------

GBWName                                 ... /kaggle/working/Phe-F-1/Phe-F_InterFrag.gbw
Number of atoms                         ...     23
Number of basis functions               ...    232
Max core memory                         ...   3000 MB

Electric properties:
Dipole moment                           ... YES
Quadrupole moment                       ...  NO
Static polarizability (Dipole/Dipole)   ...  NO
Static polarizability (Dipole/Quad.)    ...  NO
Static polarizability (Quad./Quad.)     ...  NO
Static polarizability (Velocity)        ...  NO
Static hyperpolarizability              ...  NO

Atomic electric properties:
Dipole moment                           ...  NO
Quadrupole moment                       ...  NO
Static polarizability                   ...  NO

Choice of electric origin               ... Center of mass
Position of electric origin             ...     0.023999    -0.117481    -0.076616

General magnetic properties:
Magnetizability                         ...  NO

EPR properties:
g-Tensor (aka g-matrix)                 ...  NO
Zero-Field splitting spin-orbit         ...  NO
Zero-field splitting spin-spin          ...  NO
Hyperfine couplings                     ...  NO (   0 nuclei)
Quadrupole couplings                    ...  NO (   0 nuclei)
Contact density                         ...  NO (   0 nuclei)

NMR properties:
Chemical shifts                         ...  NO (   0 nuclei)
Spin-rotation constants                 ...  NO (   0 nuclei)
Spin-spin couplings                     ...  NO (   0 nuclei,    0 pairs)

Choice of magnetic origin               ... GIAO
Position of magnetic origin             ...     0.000000     0.000000     0.000000

Properties with geometric perturbations:
SCF Hessian                             ...  NO
IR spectrum                             ...  NO
VCD spectrum                            ...  NO
X-ray spectroscopy properties:
SCF XES/XAS/RIXS spectra                ...  NO

SCF SOC stabilization energy            ...  NO
Diagonal Born-Oppenheimer correction    ...  NO

-------------
DIPOLE MOMENT
-------------

Method             : SCF
Type of density    : Electron Density
Multiplicity       :   1
Irrep              :   0
Energy             :  -653.6914676259865473 Eh
Basis              : AO
                                X                 Y                 Z
Electronic contribution:     10.246657882      -5.981295325      -2.049244150
Nuclear contribution   :    -10.035031905       6.802858796       2.177358385
                        -----------------------------------------
Total Dipole Moment    :      0.211625977       0.821563472       0.128114234
                        -----------------------------------------
Magnitude (a.u.)       :      0.858000786
Magnitude (Debye)      :      2.180864682



--------------------
Rotational spectrum 
--------------------
 
Rotational constants in cm-1:             0.056709             0.014595             0.013283 
Rotational constants in MHz :          1700.103351           437.535522           398.227146 

Dipole components along the rotational axes: 
x,y,z [a.u.] :     0.135818     0.843429     0.079663 
x,y,z [Debye]:     0.345221     2.143826     0.202487 

 

Dipole moment calculation done in   0.0 sec 

Maximum memory used throughout the entire PROP-calculation: 13.6 MB

--------------------------------
SUGGESTED CITATIONS FOR THIS RUN
--------------------------------

Below you find a list of papers that are relevant to this ORCA run
We neither can nor want to force you to cite these papers, but we appreciate if you do
You receive ORCA, which is the product of decades of hard work by many enthusiastic individuals, for free
The only thing we kindly ask in return is that you cite our papers,
We deeply appreciate it, if you show your appreciation for ORCA by not just citing the generic ORCA reference.

Please note that relegating all ORCA citations to the supporting information does *not* help us.
SI sections are not indexed - citations you put there will not count into any citation statistics
But we need these citations in order to attract the funding resources that allow us to do what we are doing

Therefore, if you are a happy ORCA user, please consider citing a few of the papers listed below in the main body of your paper

In addition to the list printed below, the program has created the file /kaggle/working/Phe-F-1/Phe-F_InterFrag.bibtex that contains the list in bibtex format
You can import this file easily into all common literature databanks and citation aid programs

It goes without saying that in many instances, there are alternative algorithms to achieve similar
results as the ones you have gotten from ORCA. It is, of course, also the case that in some instances
ORCA just re-implements algorithms worked out by others. We are fully aware of that and we are also
fully appreciative of our colleagues work. Hence this citation list should not be read as indicating
that the listed papers, which are focused on our own work, are the only ones worth citing. It simply
meant to make it easier for users to cite ORCA specific papers. It is not a substitute for doing your
own literature research and citing the relevant literature in a scientifically appropriate manner.

List of essential papers. We consider these as the minimum necessary citations

  1. Neese, F.
     Software update: the ORCA program system, version 6.0
     WIRES Comput. Molec. Sci. 2025 15(1), e70019
     doi.org/10.1002/wcms.70019

List of papers to cite with high priority. The work reported in these papers was absolutely
necessary for this run to complete.
Our perspective: the developers of density functionals and basis sets usually get cited in chemistry papers
Good! But without the algorithms to do something with them, the functionals or basis sets would not do anything.
Hence, in our opinion, the algorithm design and method developments papers are equally worthy of getting cited

  1. Neese, F.
     An improvement of the resolution of the identity approximation for the formation of the Coulomb matrix
     J. Comp. Chem. 2003 24(14), 1740-1747
     doi.org/10.1002/jcc.10318
  2. Neese, F.; Wennmohs, F.; Hansen, A.; Becker, U.
     Efficient, approximate and parallel Hartree-Fock and hybrid DFT calculations. A 'chain-of-spheres' algorithm for the Hartree-Fock exchange
     Chem. Phys. 2009 356(1-3), 98-109
     doi.org/10.1016/j.chemphys.2008.10.036
  3. Grimme, S.; Antony, J.; Ehrlich, S.; Krieg, H.
     A consistent and accurate ab initio parametrization of density functional dispersion correction (DFT-D) for the 94 elements H-Pu
     J. Chem. Phys. 2010 132 , 154104
     doi.org/10.1063/1.3382344
  4. Grimme, S.; Ehrlich, S.; Goerigk, L.
     Effect of the damping function in dispersion corrected density functional theory
     J. Comput. Chem. 2011 32(7), 1456-1465
     doi.org/10.1002/jcc.21759
  5. Garcia-Rates, M.; Neese, F.
     Effect of the Solute Cavity on the Solvation Energy and its Derivatives within the Framework of the Gaussian Charge Scheme
     J. Comput. Chem. 2020 41 , 922-939
     doi.org/10.1002/jcc.26139
  6. Helmich-Paris, B.; de Souza, B.; Neese, F.; Izsák, R.
     An improved chain of spheres for exchange algorithm
     J. Chem. Phys. 2021 155(10), 104109
     doi.org/10.1063/5.0058766
  7. Neese, F.
     The SHARK Integral Generation and Digestion System
     J. Comp. Chem. 2022 44(3), 381
     doi.org/10.1002/jcc.26942

List of suggested additional citations. These are papers that are important in the 'surrounding' of 
of this run, or papers that preceded the highly important papers. If you like your results we are grateful for a citation.

  1. Izsak, R.; Neese, F.
     An overlap fitted chain of spheres exchange method
     J. Chem. Phys. 2011 135 , 144105
     doi.org/10.1063/1.3646921
  2. Izsak, R.; Hansen, A.; Neese, F.
     The resolution of identity and chain of spheres approximations for the LPNO-CCSD singles Fock term
     Molec. Phys. 2012 110 , 2413-2417
     doi.org/10.1080/00268976.2012.687466
  3. Neese, F.
     The ORCA program system
     WIRES Comput. Molec. Sci. 2012 2(1), 73-78
     doi.org/10.1002/wcms.81
  4. Izsak, R.; Neese, F.; Klopper, W.
     Robust fitting techniques in the chain of spheres approximation to the Fock exchange: The role of the complementary space
     J. Chem. Phys. 2013 139 , 
     doi.org/10.1063/1.4819264
  5. Neese, F.
     Software update: the ORCA program system, version 4.0
     WIRES Comput. Molec. Sci. 2018 8(1), 1-6
     doi.org/10.1002/wcms.1327
  6. Neese, F.; Wennmohs, F.; Becker, U.; Riplinger, C.
     The ORCA quantum chemistry program package
     J. Chem. Phys. 2020 152(22), 224108
     doi.org/10.1063/5.0004608
  7. Neese, F.
     Software update: The ORCA program system—Version 5.0
     WIRES Comput. Molec. Sci. 2022 12(1), e1606
     doi.org/10.1002/wcms.1606

List of optional additional citations

  1. Neese, F.
     Approximate second-order SCF convergence for spin unrestricted wavefunctions
     Chem. Phys. Lett. 2000 325(1-3), 93-98
     doi.org/10.1016/s0009-2614(00)00662-x

Timings for individual modules:

Sum of individual times          ...      798.958 sec (=  13.316 min)
Startup calculation              ...       27.209 sec (=   0.453 min)   3.4 %
SCF iterations                   ...      510.062 sec (=   8.501 min)  63.8 %
Property calculations            ...        0.413 sec (=   0.007 min)   0.1 %
SCF Gradient evaluation          ...      261.112 sec (=   4.352 min)  32.7 %
Geometry relaxation              ...        0.164 sec (=   0.003 min)   0.0 %
                             ****ORCA TERMINATED NORMALLY****
TOTAL RUN TIME: 0 days 0 hours 13 minutes 23 seconds 869 msec
