
                                 *****************
                                 * O   R   C   A *
                                 *****************

                                            #,                                       
                                            ###                                      
                                            ####                                     
                                            #####                                    
                                            ######                                   
                                           ########,                                 
                                     ,,################,,,,,                         
                               ,,#################################,,                 
                          ,,##########################################,,             
                       ,#########################################, ''#####,          
                    ,#############################################,,   '####,        
                  ,##################################################,,,,####,       
                ,###########''''           ''''###############################       
              ,#####''   ,,,,##########,,,,          '''####'''          '####       
            ,##' ,,,,###########################,,,                        '##       
           ' ,,###''''                  '''############,,,                           
         ,,##''                                '''############,,,,        ,,,,,,###''
      ,#''                                            '''#######################'''  
     '                                                          ''''####''''         
             ,#######,   #######,   ,#######,      ##                                
            ,#'     '#,  ##    ##  ,#'     '#,    #''#        ,####,    ,#,          
            ##       ##  ##   ,#'  ##            #'  '#       #'       ,# #          
            ##       ##  #######   ##           ,######,      #####,      #          
            '#,     ,#'  ##    ##  '#,     ,#' ,#      #,     #,   #      #          
             '#######'   ##     ##  '#######'  #'      '#     '####' #    #          



                #########################################################
                #                        -***-                          #
                #          Department of theory and spectroscopy        #
                #                                                       #
                #                      Frank Neese                      #
                #                                                       #
                #     Directorship, Architecture, Infrastructure        #
                #                    SHARK, DRIVERS                     #
                #        Core code/Algorithms in most modules           #
                #                                                       #
                #        Max Planck Institute fuer Kohlenforschung      #
                #                Kaiser Wilhelm Platz 1                 #
                #                 D-45470 Muelheim/Ruhr                 #
                #                      Germany                          #
                #                                                       #
                #                  All rights reserved                  #
                #                        -***-                          #
                #########################################################


                         Program Version 6.1.1  -  RELEASE   -
                                (GIT: $487d211c$)
                          ($2025-11-21 10:33:24 +0100$)
                                                                         
                                  - NO-DMRG VERSION -                    
                                                                         


 With contributions from (in alphabetic order):
[Max-Planck-Institut fuer Kohlenforschung]                               
  Daniel Aravena         : Magnetic Suceptibility                        
  Michael Atanasov       : Ab Initio Ligand Field Theory (pilot matlab implementation)
  Alexander A. Auer      : GIAO ZORA, VPT2 properties, NMR spectrum      
  Ute Becker             : All parallelization in ORCA, NUMFREQ, NUMCALC 
  Giovanni Bistoni       : ED, misc. LED, open-shell LED, HFLD           
  Dmytro Bykov           : pre 5.0 version of the SCF Hessian            
  Marcos Casanova-Páez   : Triplet and SCS-CIS(D). UHF-(DLPNO)-IP/EA/STEOM-CCSD. UHF-CVS-IP/STEOM-CCSD   
  Vijay G. Chilkuri      : MRCI spin determinant printing, contributions to CSF-ICE 
  Pauline Colinet        : FMM embedding                                 
  Dipayan Datta          : RHF DLPNO-CCSD density                        
  Achintya Kumar Dutta   : EOM-CC, STEOM-CC                              
  Nicolas Foglia         : Exact transition moments, OPA infrastructure, MCD improvements    
  Dmitry Ganyushin       : Spin-Orbit,Spin-Spin,Magnetic field MRCI      
  Miquel Garcia-Rates    : C-PCM and meta-GGA Hessian, CCSD/C-PCM, Gaussian charge scheme 
  Tiago L. C. Gouveia    : GS-ROHF, GS-ROCIS                             
  Yang Guo               : DLPNO-NEVPT2, F12-NEVPT2, CIM, IAO-localization        
  Andreas Hansen         : Spin unrestricted coupled pair/coupled cluster methods 
  Ingolf Harden          : AUTO-CI MPn and infrastructure                
  Benjamin Helmich-Paris : MC-RPA, TRAH-(SCF,CASSCF), AVAS, COSX integrals, SCF dyn. polar., MC-PDFT, srDFT 
  Lee Huntington         : MR-EOM, pCC                                   
  Robert Izsak           : Overlap fitted RIJCOSX, COSX-SCS-MP3, EOM     
  Riya Kayal             : Wick's Theorem for AUTO-CI, AUTO-CI UHF-CCSDT 
  Emily Kempfer          : AUTO-CI RHF CISDT and CCSDT, approximate NEVPT4
  Christian Kollmar      : KDIIS, OOCD, Brueckner-CCSD(T), CCSD density, CASPT2, CASPT2-K, improved NEVPT2 
  Axel Koslowski         : Symmetry handling                             
  Simone Kossmann        : meta-GGA functionals, TD-DFT gradient, OOMP2, (MP2 Hessian; deprecated post 5.0) 
  Lucas Lang             : DCDCAS, Hyperfine gauge corrections, ICE-SOC+SSC
  Marvin Lechner         : AUTO-CI (C++ implementation), FIC-MRCC        
  Spencer Leger          : CASSCF response                               
  Dagmar Lenk            : GEPOL surface, SMD, ORCA-2-JSON               
  Dimitrios Liakos       : Extrapolation schemes; Compound Job, Property file
  Dimitrios Manganas     : Further ROCIS development; embedding schemes. LFT, Crystal Embedding 
  Dimitrios Pantazis     : SARC Basis sets                               
  Anastasios Papadopoulos: AUTO-CI, single reference methods and gradients 
  Taras Petrenko         : pre 6.0 DFT Hessian and TD-DFT gradient,  ECA, NRVS 
  Petra Pikulova         : Analytic Raman intensities                    
  Peter Pinski           : DLPNO-MP2, DLPNO-MP2 Gradient                 
  Shashank Vittal Rao    : ES-AILFT, MagRelax                            
  Christoph Reimann      : Effective Core Potentials                     
  Marius Retegan         : Local ZFS, SOC                                
  Christoph Riplinger    : Optimizer, TS searches, QM/MM, DLPNO-CCSD(T), (RO)-DLPNO pert. Triples 
  Michael Roemelt        : Original ROCIS implementation, recursive CI coupling coefficients
  Masaaki Saitow         : Open-shell DLPNO-CCSD energy and density      
  Barbara Sandhoefer     : DKH picture change effects                    
  Yorick L. A. Schmerwitz: GMF and freeze-and-release deltaSCF, NEB S-IDPP initial path                    
  Kantharuban Sivalingam : CASSCF convergence/infrastructure, NEVPT2, NEVPT3, NEVPT4(SD), FIC-MRCI and CEPA variants
  Bernardo de Souza      : ESD, SOC TD-DFT                               
  Georgi L. Stoychev     : AutoAux, RI-MP2 NMR, DLPNO-MP2 response, X2C  
  Van Anh Tran           : RI-MP2 g-tensors                              
  Willem Van den Heuvel  : Paramagnetic NMR                              
  Zikuan Wang            : NOTCH, Electric field optimization            
  Frank Wennmohs         : Technical directorship and infrastructure     
  Hang Xu                : AUTO-CI-Response properties                   
                                                                         
[FACCTs GmbH]                                                            
  Markus Bursch, Nicolas Foglia, Miquel Garcia-Rates, Ingolf Harden, Hagen Neugebauer, Anastasios Papadopoulos, 
  Christoph Riplinger, Bernardo de Souza, Georgi L. Stoychev                                                    
                                                                 
  APM, various basis sets, CI-OPT, improved COSX, DLPNO-Multilevel,           
  DOCKER, DRACO, updates on ESD, Fragmentator, GOAT, IRC, LR-CPCM, L-BFGS, MBIS, meta-GGA TD-DFT gradient, ML-optimized integration grids, 
  MM, NACMEs, nearIR, NEB, NEB-TS, NL-DFT gradient (VV10), 2- and 3-layer-ONIOM, interface openCOSMO-RS, QMMM,   
  Crystal-QMMM, RESP, rigid body optimization, SF, symmetry and pop. for TD-DFT, various functionals, SOLVATOR                                   
                                                                         
[Other institutions]                                                     
  V. Asgeirsson          : NEB                                           
  Christoph Bannwarth    : sTDA-DFT, sTD-DFT, PBEh-3c, B97-3c, D3        
  Giovanni Bistoni       : ETS/NOCV, ADLD/ADEX, COVALED                  
  Martin Brehm           : Molecular dynamics                            
  Ronald Cardenas        : ETS/NOCV                                      
  Martina Colucci        : COVALED                                       
  Sebastian Ehlert       : rSCAN, r2SCAN, r2SCAN-3c, D4, dhf basis sets  
  Marvin Friede          : D4 for Fr, Ra, Ac-Lr                          
  Lars Goerigk           : TD-DFT with DH, B97 family of functionals     
  Stefan Grimme          : VdW corrections, initial TS optimization, DFT functionals, gCP, sTDA/sTD-DF 
  Waldemar Hujo          : DFT-NL                                        
  H. Jonsson             : NEB                                           
  Holger Kruse           : gCP                                           
  Marcel Mueller         : wB97X-3c, vDZP basis set                      
  Hagen Neugebauer       : wr2SCAN, Native XTB                           
  Gianluca Regni         : ADLD/ADEX                                     
  Tobias Risthaus        : pre 6.0 range-separated hybrid DFT and stability analysis
  Lukas Wittmann         : regularized MP2, r2SCAN double-hybrids, wr2SCAN        
                                                                         
We gratefully acknowledge several colleagues who have allowed us to      
interface, adapt or use parts of their codes:                            
  Ed Valeev, F. Pavosevic, A. Kumar             : LibInt (2-el integral package), F12 methods 
  Garnet Chan, S. Sharma, J. Yang, R. Olivares  : DMRG                   
  Ulf Ekstrom                                   : XCFun DFT Library      
  Mihaly Kallay                                 : mrcc  (arbitrary order and MRCC methods)
  Frank Weinhold                                : gennbo (NPA and NBO analysis)           
  Simon Mueller                                 : openCOSMO-RS                            
  Christopher J. Cramer and Donald G. Truhlar   : smd solvation model                     
  S Lehtola, MJT Oliveira, MAL Marques          : LibXC Library                           
  Liviu Ungur et al                             : ANISO software                          


 Your calculation uses the libint2 library for the computation of 2-el integrals
 For citations please refer to: http://libint.valeyev.net

 Your ORCA version has been built with support for libXC version: 7.0.0
 For citations please refer to: https://libxc.gitlab.io

 This ORCA versions uses:
   CBLAS   interface :  Fast vector & matrix operations
   LAPACKE interface :  Fast linear algebra routines
   SCALAPACK package :  Parallel linear algebra routines
   Shared memory     :  Shared parallel matrices
   BLAS/LAPACK       :  OpenBLAS 0.3.29  USE64BITINT DYNAMIC_ARCH NO_AFFINITY SkylakeX SINGLE_THREADED
        Core in use  :  SkylakeX
   Copyright (c) 2011-2014, The OpenBLAS Project


  ***********************************
  * Starting time: Tue Mar 24 04:20:26 2026
  * Host name:     7752d3730a1e
  * Process ID:    607
  * Working dir.:  /kaggle/working
  ***********************************

NOTE: MaxCore=3000 MB was set to SCF,MP2,MDCI,CIPSI,MRCI,RASCI and CIS
      => If you want to overwrite this, your respective input block should be placed after the MaxCore statement
Your calculation utilizes the atom-pairwise dispersion correction
with the Becke-Johnson damping scheme (D3BJ)


Warning: RI is on but no J-basis has been assigned. Assigning Def2/J (nothing to worry about!)
================================================================================

----- Orbital basis set information -----
Your calculation utilizes the basis: def2-TZVPP
   F. Weigend and R. Ahlrichs, Phys. Chem. Chem. Phys. 7, 3297 (2005).

----- AuxJ basis set information -----
Your calculation utilizes the auxiliary basis: def2/J
   H-Rn: F. Weigend, Phys. Chem. Chem. Phys. 8, 1057 (2006).
   Fr-Lr: K. Eichkorn, F. Weigend, O. Treutler, R. Ahlrichs; Theor. Chem. Acc. 97, 119 (1997).

================================================================================
                                        WARNINGS
                       Please study these warnings very carefully!
================================================================================


================================================================================
                                       INPUT FILE
================================================================================
NAME = /kaggle/working/Phe-COOH-2/Phe-COOH_InterFrag.inp
|  1> 
|  2> !RKS B3LYP def2-TZVPP TightSCF D3BJ # 6-31G(d,p)
|  3> 
|  4> %pal nprocs 2 end
|  5> %maxcore 3000
|  6> 
|  7> %elprop
|  8>   Polar 1      # polarizability via CP-SCF
|  9> end
| 10> 
| 11> %output
| 12>   PrintLevel Normal
| 13>   Print[ P_OrbEn ] 2
| 14> end
| 15> 
| 16> *xyz 0 1
| 17>   O     -1.908842   -1.088663   -1.528066
| 18>   O     -3.388516   -1.542427    0.096517
| 19>   O      4.301137    0.331898   -0.955488
| 20>   O      4.093554   -1.520544    0.289518
| 21>   N     -4.186537    1.157825   -0.094479
| 22>   C     -1.854337    1.116029    0.855661
| 23>   C     -2.801535    0.759212   -0.323108
| 24>   C     -0.423615    0.725019    0.622812
| 25>   C      0.093138   -0.453539    1.166129
| 26>   C      0.401901    1.507593   -0.187874
| 27>   C      1.397063   -0.841498    0.907288
| 28>   C      1.707089    1.127113   -0.452087
| 29>   C      2.216227   -0.054994    0.094233
| 30>   C     -2.756238   -0.734752   -0.551606
| 31>   C      3.600908   -0.500891   -0.160651
| 32>   H     -2.239201    0.632097    1.754156
| 33>   H     -1.931778    2.195506    0.990161
| 34>   H     -2.434789    1.252085   -1.220708
| 35>   H     -0.536989   -1.070431    1.793279
| 36>   H      0.014964    2.423692   -0.614840
| 37>   H      1.787774   -1.754634    1.332827
| 38>   H      2.329950    1.746232   -1.079949
| 39>   H     -4.200576    2.151081    0.111326
| 40>   H     -4.527487    0.689149    0.739298
| 41>   H     -1.873719   -2.058206   -1.582173
| 42>   H      5.192153   -0.033749   -1.070474
| 43> 
| 44> *
| 45> 
| 46>                          ****END OF INPUT****
================================================================================

                       ****************************
                       * Single Point Calculation *
                       ****************************

---------------------------------
CARTESIAN COORDINATES (ANGSTROEM)
---------------------------------
  O     -1.908842   -1.088663   -1.528066
  O     -3.388516   -1.542427    0.096517
  O      4.301137    0.331898   -0.955488
  O      4.093554   -1.520544    0.289518
  N     -4.186537    1.157825   -0.094479
  C     -1.854337    1.116029    0.855661
  C     -2.801535    0.759212   -0.323108
  C     -0.423615    0.725019    0.622812
  C      0.093138   -0.453539    1.166129
  C      0.401901    1.507593   -0.187874
  C      1.397063   -0.841498    0.907288
  C      1.707089    1.127113   -0.452087
  C      2.216227   -0.054994    0.094233
  C     -2.756238   -0.734752   -0.551606
  C      3.600908   -0.500891   -0.160651
  H     -2.239201    0.632097    1.754156
  H     -1.931778    2.195506    0.990161
  H     -2.434789    1.252085   -1.220708
  H     -0.536989   -1.070431    1.793279
  H      0.014964    2.423692   -0.614840
  H      1.787774   -1.754634    1.332827
  H      2.329950    1.746232   -1.079949
  H     -4.200576    2.151081    0.111326
  H     -4.527487    0.689149    0.739298
  H     -1.873719   -2.058206   -1.582173
  H      5.192153   -0.033749   -1.070474

----------------------------
CARTESIAN COORDINATES (A.U.)
----------------------------
  NO LB      ZA    FRAG     MASS         X           Y           Z
   0 O     8.0000    0    15.999   -3.607189   -2.057275   -2.887626
   1 O     8.0000    0    15.999   -6.403367   -2.914765    0.182391
   2 O     8.0000    0    15.999    8.127971    0.627196   -1.805611
   3 O     8.0000    0    15.999    7.735696   -2.873412    0.547110
   4 N     7.0000    0    14.007   -7.911408    2.187972   -0.178539
   5 C     6.0000    0    12.011   -3.504189    2.108989    1.616965
   6 C     6.0000    0    12.011   -5.294134    1.434703   -0.610586
   7 C     6.0000    0    12.011   -0.800516    1.370087    1.176944
   8 C     6.0000    0    12.011    0.176005   -0.857065    2.203664
   9 C     6.0000    0    12.011    0.759483    2.848938   -0.355030
  10 C     6.0000    0    12.011    2.640066   -1.590201    1.714526
  11 C     6.0000    0    12.011    3.225931    2.129935   -0.854321
  12 C     6.0000    0    12.011    4.188062   -0.103924    0.178075
  13 C     6.0000    0    12.011   -5.208535   -1.388480   -1.042384
  14 C     6.0000    0    12.011    6.804730   -0.946547   -0.303586
  15 H     1.0000    0     1.008   -4.231477    1.194490    3.314874
  16 H     1.0000    0     1.008   -3.650531    4.148905    1.871133
  17 H     1.0000    0     1.008   -4.601084    2.366098   -2.306804
  18 H     1.0000    0     1.008   -1.014762   -2.022821    3.388806
  19 H     1.0000    0     1.008    0.028278    4.580114   -1.161879
  20 H     1.0000    0     1.008    3.378403   -3.315778    2.518678
  21 H     1.0000    0     1.008    4.402967    3.299900   -2.040808
  22 H     1.0000    0     1.008   -7.937938    4.064954    0.210376
  23 H     1.0000    0     1.008   -8.555711    1.302303    1.397071
  24 H     1.0000    0     1.008   -3.540816   -3.889446   -2.989874
  25 H     1.0000    0     1.008    9.811747   -0.063776   -2.022903

--------------------------------
INTERNAL COORDINATES (ANGSTROEM)
--------------------------------
 O      0   0   0     0.000000000000     0.00000000     0.00000000
 O      1   0   0     2.243792957886     0.00000000     0.00000000
 O      1   2   0     6.396067409061   128.34282169     0.00000000
 O      3   1   2     2.241578016775    77.07158897    49.98345968
 N      2   1   3     2.822176084507    86.78847136    97.54703453
 C      5   2   1     2.518664281959    72.34758295   291.65758410
 C      5   2   1     1.459244353566    58.72536017   326.69365805
 C      6   5   2     1.501357025556   145.91606096    61.23199753
 C      8   6   5     1.396862908399   120.79350804   260.52112898
 C      8   6   5     1.396821578559   120.48364641    77.91083503
 C      9   8   6     1.384821741087   120.79681967   177.39042820
 C     10   8   6     1.384950993759   120.91494456   182.60822528
 C     11   9   8     1.396666257177   120.21855176   359.95693504
 C      2   1   3     1.213333341682    30.11506144    79.85065767
 C      4   3   1     1.218623998732    30.77228365   330.02740981
 H      6   5   2     1.090689572768    89.50657309   293.70670765
 H      6   5   2     1.090576889545    87.95679355   185.46406010
 H      7   5   2     1.087709604005   108.99781902   134.16574397
 H      9   8   6     1.082096529101   119.40623646   357.63006603
 H     10   8   6     1.082246545352   119.46641397     2.60607617
 H     11   9   8     1.080534997368   120.23886891   179.95798952
 H     12  10   8     1.079571606021   119.80994181   180.09030088
 H      5   2   1     1.014450724817   157.97053001   268.47904006
 H      5   2   1     1.015425123387    66.28163629   194.05160820
 H      1   2   3     0.971686586008    82.08921556    97.85115936
 H      3   1   2     0.969963412228   142.89627084   104.76781265

---------------------------
INTERNAL COORDINATES (A.U.)
---------------------------
 O      0   0   0     0.000000000000     0.00000000     0.00000000
 O      1   0   0     4.240154191627     0.00000000     0.00000000
 O      1   2   0    12.086815737224   128.34282169     0.00000000
 O      3   1   2     4.235968559523    77.07158897    49.98345968
 N      2   1   3     5.333139901420    86.78847136    97.54703453
 C      5   2   1     4.759585716192    72.34758295   291.65758410
 C      5   2   1     2.757572190711    58.72536017   326.69365805
 C      6   5   2     2.837153607539   145.91606096    61.23199753
 C      8   6   5     2.639688343508   120.79350804   260.52112898
 C      8   6   5     2.639610241428   120.48364641    77.91083503
 C      9   8   6     2.616933834954   120.79681967   177.39042820
 C     10   8   6     2.617178087106   120.91494456   182.60822528
 C     11   9   8     2.639316726553   120.21855176   359.95693504
 C      2   1   3     2.292867724935    30.11506144    79.85065767
 C      4   3   1     2.302865617828    30.77228365   330.02740981
 H      6   5   2     2.061104589655    89.50657309   293.70670765
 H      6   5   2     2.060891649224    87.95679355   185.46406010
 H      7   5   2     2.055473264806   108.99781902   134.16574397
 H      9   8   6     2.044866090468   119.40623646   357.63006603
 H     10   8   6     2.045149580097   119.46641397     2.60607617
 H     11   9   8     2.041915223144   120.23886891   179.95798952
 H     12  10   8     2.040094677337   119.80994181   180.09030088
 H      5   2   1     1.917034046262   157.97053001   268.47904006
 H      5   2   1     1.918875392704    66.28163629   194.05160820
 H      1   2   3     1.836221535559    82.08921556    97.85115936
 H      3   1   2     1.832965209035   142.89627084   104.76781265

---------------------
BASIS SET INFORMATION
---------------------
There are 4 groups of distinct atoms

 Group   1 Type O   : 11s6p2d1f contracted to 5s3p2d1f pattern {62111/411/11/1}
 Group   2 Type N   : 11s6p2d1f contracted to 5s3p2d1f pattern {62111/411/11/1}
 Group   3 Type C   : 11s6p2d1f contracted to 5s3p2d1f pattern {62111/411/11/1}
 Group   4 Type H   : 5s2p1d contracted to 3s2p1d pattern {311/11/1}

Atom   0O    basis set group =>   1
Atom   1O    basis set group =>   1
Atom   2O    basis set group =>   1
Atom   3O    basis set group =>   1
Atom   4N    basis set group =>   2
Atom   5C    basis set group =>   3
Atom   6C    basis set group =>   3
Atom   7C    basis set group =>   3
Atom   8C    basis set group =>   3
Atom   9C    basis set group =>   3
Atom  10C    basis set group =>   3
Atom  11C    basis set group =>   3
Atom  12C    basis set group =>   3
Atom  13C    basis set group =>   3
Atom  14C    basis set group =>   3
Atom  15H    basis set group =>   4
Atom  16H    basis set group =>   4
Atom  17H    basis set group =>   4
Atom  18H    basis set group =>   4
Atom  19H    basis set group =>   4
Atom  20H    basis set group =>   4
Atom  21H    basis set group =>   4
Atom  22H    basis set group =>   4
Atom  23H    basis set group =>   4
Atom  24H    basis set group =>   4
Atom  25H    basis set group =>   4
---------------------------------
AUXILIARY/J BASIS SET INFORMATION
---------------------------------
There are 4 groups of distinct atoms

 Group   1 Type O   : 12s5p4d2f1g contracted to 6s4p3d1f1g pattern {711111/2111/211/2/1}
 Group   2 Type N   : 12s5p4d2f1g contracted to 6s4p3d1f1g pattern {711111/2111/211/2/1}
 Group   3 Type C   : 12s5p4d2f1g contracted to 6s4p3d1f1g pattern {711111/2111/211/2/1}
 Group   4 Type H   : 5s2p1d contracted to 3s1p1d pattern {311/2/1}

Atom   0O    basis set group =>   1
Atom   1O    basis set group =>   1
Atom   2O    basis set group =>   1
Atom   3O    basis set group =>   1
Atom   4N    basis set group =>   2
Atom   5C    basis set group =>   3
Atom   6C    basis set group =>   3
Atom   7C    basis set group =>   3
Atom   8C    basis set group =>   3
Atom   9C    basis set group =>   3
Atom  10C    basis set group =>   3
Atom  11C    basis set group =>   3
Atom  12C    basis set group =>   3
Atom  13C    basis set group =>   3
Atom  14C    basis set group =>   3
Atom  15H    basis set group =>   4
Atom  16H    basis set group =>   4
Atom  17H    basis set group =>   4
Atom  18H    basis set group =>   4
Atom  19H    basis set group =>   4
Atom  20H    basis set group =>   4
Atom  21H    basis set group =>   4
Atom  22H    basis set group =>   4
Atom  23H    basis set group =>   4
Atom  24H    basis set group =>   4
Atom  25H    basis set group =>   4


           ************************************************************
           *        Program running with 2 parallel MPI-processes     *
           *              working on a common directory               *
           ************************************************************
------------------------------------------------------------------------------
                             ORCA STARTUP CALCULATIONS
                           -- RI-GTO INTEGRALS CHOSEN --
------------------------------------------------------------------------------
------------------------------------------------------------------------------
                   ___                                                        
                  /   \      - P O W E R E D   B Y -                         
                 /     \                                                     
                 |  |  |   _    _      __       _____    __    __             
                 |  |  |  | |  | |    /  \     |  _  \  |  |  /  |          
                  \  \/   | |  | |   /    \    | | | |  |  | /  /          
                 / \  \   | |__| |  /  /\  \   | |_| |  |  |/  /          
                |  |  |   |  __  | /  /__\  \  |    /   |      \           
                |  |  |   | |  | | |   __   |  |    \   |  |\   \          
                \     /   | |  | | |  |  |  |  | |\  \  |  | \   \       
                 \___/    |_|  |_| |__|  |__|  |_| \__\ |__|  \__/        
                                                                              
                      - O R C A' S   B I G   F R I E N D -                    
                                      &                                       
                       - I N T E G R A L  F E E D E R -                       
                                                                              
 v1 FN, 2020, v2 2021, v3 2022-2024                                           
------------------------------------------------------------------------------


----------------------
SHARK INTEGRAL PACKAGE
----------------------

Number of atoms                             ...     26
Number of basis functions                   ...    619
Number of shells                            ...    231
Maximum angular momentum                    ...      3
Integral batch strategy                     ... SHARK/LIBINT Hybrid
RI-J (if used) integral strategy            ... SPLIT-RIJ (Revised 2003 algorithm where possible)
Printlevel                                  ...      1
Contraction scheme used                     ... SEGMENTED contraction
Prescreening option                         ... SCHWARTZ
   Thresh                                   ... 2.500e-11
   Tcut                                     ... 2.500e-12
   Tpresel                                  ... 2.500e-12 
Coulomb Range Separation                    ... NOT USED
Exchange Range Separation                   ... NOT USED
Multipole approximations                    ... NOT USED
Finite Nucleus Model                        ... NOT USED
CABS basis                                  ... NOT available
Auxiliary Coulomb fitting basis             ... AVAILABLE
   # of basis functions in Aux-J            ...    856
   # of shells in Aux-J                     ...    280
   Maximum angular momentum in Aux-J        ...      4
Auxiliary J/K fitting basis                 ... NOT available
Auxiliary Correlation fitting basis         ... NOT available
Auxiliary 'external' fitting basis          ... NOT available

Checking pre-screening integrals            ... done (  0.0 sec) Dimension = 231
   => SHARK Basis and OBASIS are compatible. Storing Pre-screening
Shell pair information
Shell pair cut-off parameter TPreSel        ...   2.5e-12
Total number of shell pairs                 ...     26796
Shell pairs after pre-screening             ...     20398
Total number of primitive shell pairs       ...     75829
Primitive shell pairs kept                  ...     41176
          la=0 lb=0:   4392 shell pairs
          la=1 lb=0:   5713 shell pairs
          la=1 lb=1:   1896 shell pairs
          la=2 lb=0:   3204 shell pairs
          la=2 lb=1:   2117 shell pairs
          la=2 lb=2:    596 shell pairs
          la=3 lb=0:   1176 shell pairs
          la=3 lb=1:    779 shell pairs
          la=3 lb=2:    436 shell pairs
          la=3 lb=3:     89 shell pairs

Checking whether 4 symmetric matrices of dimension 619 fit in memory
:Max Core in MB      =   3000.00
 MB in use           =     28.27
 MB left             =   2971.73
 MB needed           =      5.86
 Data fit in memory  = YES
Calculating RI/J V-Matrix + Cholesky decomp.... done (  0.0 sec)
Calculating Nuclear repulsion               ... done (  0.0 sec) ENN=    965.496852308422 Eh

Diagonalization of the overlap matrix:
Smallest eigenvalue                        ... 6.890e-06
Time for diagonalization                   ...    0.061 sec
Threshold for overlap eigenvalues          ... 1.000e-07
Number of eigenvalues below threshold      ... 0
Time for construction of square roots      ...    0.022 sec
Total time needed                          ...    0.086 sec

-------------------
DFT GRID GENERATION
-------------------

General Integration Accuracy     IntAcc      ... 4.388
Radial Grid Type                 RadialGrid  ... OptM3 with GC (2021)
Angular Grid (max. ang.)         AngularGrid ... 4 (Lebedev-302)
Angular grid pruning method      GridPruning ... 4 (adaptive)
Weight generation scheme         WeightScheme... mBecke (2022)
Basis function cutoff            BFCut       ... 1.0000e-11
Integration weight cutoff        WCut        ... 1.0000e-14
Partially contracted basis set               ... off
Rotationally invariant grid construction     ... off
Angular grids for H and He will be reduced by one unit

Total number of grid points                  ...   125289
Total number of batches                      ...     1971
Average number of points per batch           ...       63
Average number of grid points per atom       ...     4819

--------------------
COSX GRID GENERATION
--------------------

GRIDX 1
-------
General Integration Accuracy     IntAcc      ... 3.816
Radial Grid Type                 RadialGrid  ... OptM3 with GC (2021)
Angular Grid (max. ang.)         AngularGrid ... 1 (Lebedev-50)
Angular grid pruning method      GridPruning ... 4 (adaptive)
Weight generation scheme         WeightScheme... mBecke (2022)
Basis function cutoff            BFCut       ... 1.0000e-11
Integration weight cutoff        WCut        ... 1.0000e-14
Partially contracted basis set               ... on
Rotationally invariant grid construction     ... off
Angular grids for H and He will be reduced by one unit

Total number of grid points                  ...    15889
Total number of batches                      ...      139
Average number of points per batch           ...      114
Average number of grid points per atom       ...      611
UseSFitting                                  ... on

GRIDX 2
-------
General Integration Accuracy     IntAcc      ... 4.020
Radial Grid Type                 RadialGrid  ... OptM3 with GC (2021)
Angular Grid (max. ang.)         AngularGrid ... 2 (Lebedev-110)
Angular grid pruning method      GridPruning ... 4 (adaptive)
Weight generation scheme         WeightScheme... mBecke (2022)
Basis function cutoff            BFCut       ... 1.0000e-11
Integration weight cutoff        WCut        ... 1.0000e-14
Partially contracted basis set               ... on
Rotationally invariant grid construction     ... off
Angular grids for H and He will be reduced by one unit

Total number of grid points                  ...    34873
Total number of batches                      ...      287
Average number of points per batch           ...      121
Average number of grid points per atom       ...     1341
UseSFitting                                  ... on

GRIDX 3
-------
General Integration Accuracy     IntAcc      ... 4.338
Radial Grid Type                 RadialGrid  ... OptM3 with GC (2021)
Angular Grid (max. ang.)         AngularGrid ... 3 (Lebedev-194)
Angular grid pruning method      GridPruning ... 4 (adaptive)
Weight generation scheme         WeightScheme... mBecke (2022)
Basis function cutoff            BFCut       ... 1.0000e-11
Integration weight cutoff        WCut        ... 1.0000e-14
Partially contracted basis set               ... on
Rotationally invariant grid construction     ... off
Angular grids for H and He will be reduced by one unit

Total number of grid points                  ...    76634
Total number of batches                      ...      611
Average number of points per batch           ...      125
Average number of grid points per atom       ...     2947
UseSFitting                                  ... on
Grids setup in   3.7 sec
Initializing property integral containers    ... done (  0.0 sec)

SHARK setup successfully completed in   4.3 seconds

Maximum memory used throughout the entire STARTUP-calculation: 74.0 MB


           ************************************************************
           *        Program running with 2 parallel MPI-processes     *
           *              working on a common directory               *
           ************************************************************
-------------------------------------------------------------------------------
                                 ORCA GUESS
                   Start orbitals & Density for SCF / CASSCF
-------------------------------------------------------------------------------

------------
SCF SETTINGS
------------
Hamiltonian:
 Density Functional     Method          .... DFT(GTOs)
 Exchange Functional    Exchange        .... B88
   X-Alpha parameter    XAlpha          ....  0.666667
   Becke's b parameter  XBeta           ....  0.004200
 Correlation Functional Correlation     .... LYP
 LDA part of GGA corr.  LDAOpt          .... VWN-5
 Gradients option       PostSCFGGA      .... off
 Hybrid DFT is turned on
   Fraction HF Exchange ScalHFX         ....  0.200000
   Scaling of DF-GGA-X  ScalDFX         ....  0.720000
   Scaling of DF-GGA-C  ScalDFC         ....  0.810000
   Scaling of DF-LDA-C  ScalLDAC        ....  1.000000
   Perturbative correction              ....  0.000000
   NL short-range parameter             ....  4.800000
 RI-approximation to the Coulomb term is turned on
   Number of AuxJ basis functions       .... 856
   RIJ-COSX (HFX calculated with COS-X)).... on


General Settings:
 Integral files         IntName         .... /kaggle/working/Phe-COOH-2/Phe-COOH_InterFrag
 Hartree-Fock type      HFTyp           .... RHF
 Total Charge           Charge          ....    0
 Multiplicity           Mult            ....    1
 Number of Electrons    NEL             ....  110
 Basis Dimension        Dim             ....  619
 Nuclear Repulsion      ENuc            ....    965.4968523084 Eh

Convergence Acceleration:
 AO-DIIS                CNVDIIS         .... on
   Start iteration      DIISMaxIt       ....    12
   Startup error        DIISStart       ....  0.200000
   # of expansion vecs  DIISMaxEq       ....     5
   Bias factor          DIISBfac        ....   1.050
   Max. coefficient     DIISMaxC        ....  10.000
 MO-DIIS                CNVKDIIS        .... off
 Trust-Rad. Augm. Hess. CNVTRAH         .... auto
   Auto Start mean grad. ratio tolernc. ....  1.125000
   Auto Start start iteration           ....    50
   Auto Start num. interpolation iter.  ....    10
   Max. Number of Micro iterations      ....    24
   Max. Number of Macro iterations      .... Maxiter - #DIIS iter
   Number of Davidson start vectors     ....     2
   Converg. threshold    (grad. norm)   ....   1.000e-05
   Grad. Scal. Fac. for Micro threshold ....   0.100
   Minimum threshold for Micro iter.    ....   1.000e-02
   NR start threshold (gradient norm)   ....   1.000e-04
   Initial trust radius                 ....   0.400
   Minimum AH scaling param. (alpha)    ....   1.000
   Maximum AH scaling param. (alpha)    .... 1000.000
   Quad. conv. algorithm                .... NR
   White noise on init. David. guess    .... on
   Maximum white noise                  ....   0.010
   Pseudo random numbers                .... off
   Inactive MOs                         .... canonical
   Orbital update algorithm             .... Taylor
   Preconditioner                       .... Diag
   Full preconditioner red. dimension   ....   250
 SOSCF                 CNVSOSCF           .... on
   Start iteration     SOSCFMaxIt         ....   150
   Startup grad/error  SOSCFStart         ....  0.003300
   Hessian update      SOSCFHessUp        .... L-BFGS
   Autom. constraints  SOSCFAutoConstrain .... off
 Level Shifting         CNVShift        .... on
   Level shift para.    LevelShift      ....    0.2500
   Turn off err/grad.   ShiftErr        ....    0.0010
 Zerner damping         CNVZerner       .... off
 Static damping         CNVDamp         .... on
   Fraction old density DampFac         ....    0.7000
   Max. Damping (<1)    DampMax         ....    0.9800
   Min. Damping (>=0)   DampMin         ....    0.0000
   Turn off err/grad.   DampErr         ....    0.1000

SCF Procedure:
 Maximum # iterations   MaxIter         ....   125
 SCF integral mode      SCFMode         .... Direct
   Integral package                     .... SHARK and LIBINT hybrid scheme
 Reset frequency        DirectResetFreq ....    20
 Integral Threshold     Thresh          ....  2.500e-11 Eh
 Primitive CutOff       TCut            ....  2.500e-12 Eh

Convergence Tolerance:
 Convergence Check Mode ConvCheckMode   .... Total+1el-Energy
 Convergence forced     ConvForced      .... 0
 Energy Change          TolE            ....  1.000e-08 Eh
 1-El. energy change                    ....  1.000e-05 Eh
 Orbital Gradient       TolG            ....  1.000e-05
 Orbital Rotation angle TolX            ....  1.000e-05
 DIIS Error             TolErr          ....  5.000e-07

------------------------------
INITIAL GUESS: MODEL POTENTIAL
------------------------------
Loading Hartree-Fock densities                     ... done
Calculating cut-offs                               ... done
Initializing the effective Hamiltonian             ... done
Setting up the integral package (SHARK)            ... done
Starting the Coulomb interaction                   ... done (   0.9 sec)
Making the grid                                    ... done (   0.5 sec)
Mapping shells                                     ... done
Starting the XC term evaluation                    ... done (   0.7 sec)
  promolecular density results
     # of electrons  =    110.000902830
     EX              =    -94.090621836
     EC              =     -3.796306834
     EX+EC           =    -97.886928670
Transforming the Hamiltonian                       ... done (   0.0 sec)
Diagonalizing the Hamiltonian                      ... done (   0.1 sec)
Back transforming the eigenvectors                 ... done (   0.0 sec)
Now organizing SCF variables                       ... done
                      ------------------
                      INITIAL GUESS DONE (   2.2 sec)
                      ------------------
             **** ENERGY FILE WAS UPDATED (/kaggle/working/Phe-COOH-2/Phe-COOH_InterFrag.en.tmp) ****
Finished Guess after   2.7 sec
Maximum memory used throughout the entire GUESS-calculation: 55.1 MB


           ************************************************************
           *        Program running with 2 parallel MPI-processes     *
           *              working on a common directory               *
           ************************************************************

-------------------------------------------------------------------------------------------
                                      ORCA LEAN-SCF
                              memory conserving SCF solver
-------------------------------------------------------------------------------------------

----------------------------------------D-I-I-S--------------------------------------------
Iteration    Energy (Eh)           Delta-E    RMSDP     MaxDP     DIISErr   Damp  Time(sec)
-------------------------------------------------------------------------------------------
               ***  Starting incremental Fock matrix formation  ***
    1    -742.7361009937125118     0.00e+00  2.37e-03  1.66e-01  2.97e-01  0.700  27.4
    2    -742.9948652071713013    -2.59e-01  1.89e-03  1.48e-01  1.25e-01  0.700  13.7
                               ***Turning on AO-DIIS***
    3    -743.0861004191471011    -9.12e-02  6.36e-04  3.49e-02  3.72e-02  0.700  13.2
    4    -743.1437967306986820    -5.77e-02  8.21e-04  2.60e-02  1.73e-02  0.000  12.6
    5    -743.2731925653671397    -1.29e-01  4.03e-04  3.52e-02  7.26e-03  0.000  12.8
                              *** Initializing SOSCF ***
---------------------------------------S-O-S-C-F--------------------------------------
Iteration    Energy (Eh)           Delta-E    RMSDP     MaxDP     MaxGrad    Time(sec)
--------------------------------------------------------------------------------------
    6    -743.2738513279354038    -6.59e-04  1.23e-04  9.24e-03  2.36e-03    12.0
               *** Restarting incremental Fock matrix formation ***
    7    -743.2738451888911868     6.14e-06  8.22e-05  3.80e-03  6.07e-04    27.8
    8    -743.2738243086229204     2.09e-05  3.30e-05  1.23e-03  1.54e-03    19.5
    9    -743.2738554229998726    -3.11e-05  9.15e-06  4.01e-04  8.24e-05    17.6
   10    -743.2738547749846703     6.48e-07  4.98e-06  3.16e-04  1.35e-04    16.3
   11    -743.2738558810443692    -1.11e-06  2.15e-06  2.23e-04  9.09e-06    14.9
   12    -743.2738558751394748     5.90e-09  1.24e-06  7.08e-05  1.37e-05    12.1
                 **** Energy Check signals convergence ****

               *****************************************************
               *                     SUCCESS                       *
               *           SCF CONVERGED AFTER  12 CYCLES          *
               *****************************************************

Recomputing exchange energy using gridx3       ... done (   48.110 sec)
Old exchange energy                            :    -19.072990529 Eh
New exchange energy                            :    -19.073003816 Eh
Exchange energy change after final integration :     -0.000013288 Eh
Total energy after final integration           :   -743.273869160 Eh
             **** ENERGY FILE WAS UPDATED (/kaggle/working/Phe-COOH-2/Phe-COOH_InterFrag.en.tmp) ****

----------------
TOTAL SCF ENERGY
----------------

Total Energy       :       -743.27386916047749 Eh          -20225.51022 eV

Components:
Nuclear Repulsion  :        965.49685230842158 Eh           26272.50502 eV
Electronic Energy  :      -1708.77070818135144 Eh          -46498.01488 eV
One Electron Energy:      -2929.52870275541454 Eh          -79716.52871 eV
Two Electron Energy:       1220.75799457406310 Eh           33218.51383 eV

Virial components:
Potential Energy   :      -1483.45645749708092 Eh          -40366.90242 eV
Kinetic Energy     :        740.18258833660343 Eh           20141.39220 eV
Virial Ratio       :          2.00417637603557

DFT components:
N(Alpha)           :       54.999993753627 electrons
N(Beta)            :       54.999993753627 electrons
N(Total)           :      109.999987507253 electrons
E(X)               :      -75.877764229178 Eh       
E(C)               :       -4.474855456658 Eh       
E(XC)              :      -80.352619685836 Eh       

---------------
SCF CONVERGENCE
---------------

  Last Energy change         ...   -5.9049e-09  Tolerance :   1.0000e-08
  Last MAX-Density change    ...    7.0769e-05  Tolerance :   1.0000e-07
  Last RMS-Density change    ...    1.2360e-06  Tolerance :   5.0000e-09
  Last DIIS Error            ...    2.3555e-03  Tolerance :   5.0000e-07
  Last Orbital Gradient      ...    1.3673e-05  Tolerance :   1.0000e-05
  Last Orbital Rotation      ...    2.2363e-05  Tolerance :   1.0000e-05


----------------
ORBITAL ENERGIES
----------------

  NO   OCC          E(Eh)            E(eV) 
   0   2.0000     -19.184820      -522.0455 
   1   2.0000     -19.177705      -521.8519 
   2   2.0000     -19.123156      -520.3675 
   3   2.0000     -19.113430      -520.1029 
   4   2.0000     -14.311093      -389.4246 
   5   2.0000     -10.311933      -280.6020 
   6   2.0000     -10.308428      -280.5066 
   7   2.0000     -10.228501      -278.3317 
   8   2.0000     -10.201856      -277.6066 
   9   2.0000     -10.197906      -277.4991 
  10   2.0000     -10.194381      -277.4032 
  11   2.0000     -10.192513      -277.3524 
  12   2.0000     -10.190121      -277.2873 
  13   2.0000     -10.187836      -277.2251 
  14   2.0000     -10.186282      -277.1828 
  15   2.0000      -1.119992       -30.4765 
  16   2.0000      -1.112123       -30.2624 
  17   2.0000      -1.026916       -27.9438 
  18   2.0000      -1.016352       -27.6563 
  19   2.0000      -0.911157       -24.7938 
  20   2.0000      -0.879482       -23.9319 
  21   2.0000      -0.808147       -21.9908 
  22   2.0000      -0.764661       -20.8075 
  23   2.0000      -0.750813       -20.4307 
  24   2.0000      -0.701006       -19.0754 
  25   2.0000      -0.655288       -17.8313 
  26   2.0000      -0.626790       -17.0558 
  27   2.0000      -0.606849       -16.5132 
  28   2.0000      -0.588515       -16.0143 
  29   2.0000      -0.545195       -14.8355 
  30   2.0000      -0.539046       -14.6682 
  31   2.0000      -0.500066       -13.6075 
  32   2.0000      -0.495720       -13.4892 
  33   2.0000      -0.486471       -13.2376 
  34   2.0000      -0.476697       -12.9716 
  35   2.0000      -0.474164       -12.9027 
  36   2.0000      -0.458536       -12.4774 
  37   2.0000      -0.455617       -12.3980 
  38   2.0000      -0.450135       -12.2488 
  39   2.0000      -0.440275       -11.9805 
  40   2.0000      -0.433487       -11.7958 
  41   2.0000      -0.415087       -11.2951 
  42   2.0000      -0.408952       -11.1282 
  43   2.0000      -0.399486       -10.8706 
  44   2.0000      -0.383480       -10.4350 
  45   2.0000      -0.378563       -10.3012 
  46   2.0000      -0.368303       -10.0220 
  47   2.0000      -0.355417        -9.6714 
  48   2.0000      -0.334238        -9.0951 
  49   2.0000      -0.329033        -8.9535 
  50   2.0000      -0.292210        -7.9514 
  51   2.0000      -0.285526        -7.7696 
  52   2.0000      -0.277109        -7.5405 
  53   2.0000      -0.272589        -7.4175 
  54   2.0000      -0.254033        -6.9126 
  55   0.0000      -0.062305        -1.6954 
  56   0.0000      -0.027838        -0.7575 
  57   0.0000      -0.009200        -0.2503 
  58   0.0000       0.020060         0.5459 
  59   0.0000       0.028373         0.7721 
  60   0.0000       0.031803         0.8654 
  61   0.0000       0.040060         1.0901 
  62   0.0000       0.052724         1.4347 
  63   0.0000       0.058974         1.6048 
  64   0.0000       0.084024         2.2864 
  65   0.0000       0.088804         2.4165 
  66   0.0000       0.093692         2.5495 
  67   0.0000       0.107210         2.9173 
  68   0.0000       0.122057         3.3214 
  69   0.0000       0.133415         3.6304 
  70   0.0000       0.135065         3.6753 
  71   0.0000       0.135983         3.7003 
  72   0.0000       0.143546         3.9061 
  73   0.0000       0.167375         4.5545 
  74   0.0000       0.173985         4.7344 
  75   0.0000       0.182734         4.9725 
  76   0.0000       0.187338         5.0977 
  77   0.0000       0.196103         5.3362 
  78   0.0000       0.200337         5.4514 
  79   0.0000       0.200882         5.4663 
  80   0.0000       0.212915         5.7937 
  81   0.0000       0.220321         5.9952 
  82   0.0000       0.228044         6.2054 
  83   0.0000       0.237197         6.4545 
  84   0.0000       0.242930         6.6105 
  85   0.0000       0.245937         6.6923 
  86   0.0000       0.249540         6.7903 
  87   0.0000       0.267358         7.2752 
  88   0.0000       0.274383         7.4663 
  89   0.0000       0.282088         7.6760 
  90   0.0000       0.282310         7.6820 
  91   0.0000       0.291785         7.9399 
  92   0.0000       0.298081         8.1112 
  93   0.0000       0.302676         8.2362 
  94   0.0000       0.310049         8.4369 
  95   0.0000       0.323512         8.8032 
  96   0.0000       0.326174         8.8756 
  97   0.0000       0.335899         9.1403 
  98   0.0000       0.340288         9.2597 
  99   0.0000       0.342944         9.3320 
 100   0.0000       0.352055         9.5799 
 101   0.0000       0.354812         9.6549 
 102   0.0000       0.359758         9.7895 
 103   0.0000       0.372908        10.1473 
 104   0.0000       0.375232        10.2106 
 105   0.0000       0.383813        10.4441 
 106   0.0000       0.386277        10.5111 
 107   0.0000       0.394193        10.7265 
 108   0.0000       0.399547        10.8722 
 109   0.0000       0.408427        11.1139 
 110   0.0000       0.420333        11.4378 
 111   0.0000       0.421461        11.4685 
 112   0.0000       0.426766        11.6129 
 113   0.0000       0.431909        11.7528 
 114   0.0000       0.445941        12.1347 
 115   0.0000       0.446764        12.1571 
 116   0.0000       0.453247        12.3335 
 117   0.0000       0.455550        12.3961 
 118   0.0000       0.460914        12.5421 
 119   0.0000       0.465045        12.6545 
 120   0.0000       0.476769        12.9735 
 121   0.0000       0.486770        13.2457 
 122   0.0000       0.488309        13.2876 
 123   0.0000       0.493496        13.4287 
 124   0.0000       0.496316        13.5055 
 125   0.0000       0.499085        13.5808 
 126   0.0000       0.509075        13.8526 
 127   0.0000       0.514275        13.9941 
 128   0.0000       0.522926        14.2295 
 129   0.0000       0.526854        14.3364 
 130   0.0000       0.550330        14.9752 
 131   0.0000       0.557060        15.1584 
 132   0.0000       0.558402        15.1949 
 133   0.0000       0.562670        15.3110 
 134   0.0000       0.564588        15.3632 
 135   0.0000       0.584022        15.8920 
 136   0.0000       0.591804        16.1038 
 137   0.0000       0.615499        16.7486 
 138   0.0000       0.618843        16.8396 
 139   0.0000       0.626283        17.0420 
 140   0.0000       0.636594        17.3226 
 141   0.0000       0.640288        17.4231 
 142   0.0000       0.653687        17.7877 
 143   0.0000       0.662318        18.0226 
 144   0.0000       0.666989        18.1497 
 145   0.0000       0.670046        18.2329 
 146   0.0000       0.674685        18.3591 
 147   0.0000       0.685038        18.6408 
 148   0.0000       0.699662        19.0388 
 149   0.0000       0.708040        19.2667 
 150   0.0000       0.719479        19.5780 
 151   0.0000       0.735142        20.0042 
 152   0.0000       0.738022        20.0826 
 153   0.0000       0.748410        20.3653 
 154   0.0000       0.754973        20.5439 
 155   0.0000       0.760497        20.6942 
 156   0.0000       0.770689        20.9715 
 157   0.0000       0.772379        21.0175 
 158   0.0000       0.781864        21.2756 
 159   0.0000       0.801369        21.8064 
 160   0.0000       0.810749        22.0616 
 161   0.0000       0.822357        22.3775 
 162   0.0000       0.834444        22.7064 
 163   0.0000       0.843959        22.9653 
 164   0.0000       0.851778        23.1781 
 165   0.0000       0.855625        23.2828 
 166   0.0000       0.868203        23.6250 
 167   0.0000       0.871822        23.7235 
 168   0.0000       0.876190        23.8424 
 169   0.0000       0.890294        24.2261 
 170   0.0000       0.898454        24.4482 
 171   0.0000       0.911446        24.8017 
 172   0.0000       0.925993        25.1976 
 173   0.0000       0.938847        25.5473 
 174   0.0000       0.944456        25.6999 
 175   0.0000       0.955710        26.0062 
 176   0.0000       0.963091        26.2071 
 177   0.0000       0.981767        26.7152 
 178   0.0000       0.984655        26.7938 
 179   0.0000       0.992765        27.0145 
 180   0.0000       0.998538        27.1716 
 181   0.0000       1.002859        27.2892 
 182   0.0000       1.016695        27.6657 
 183   0.0000       1.031229        28.0612 
 184   0.0000       1.035439        28.1757 
 185   0.0000       1.040006        28.3000 
 186   0.0000       1.048013        28.5179 
 187   0.0000       1.056038        28.7362 
 188   0.0000       1.073976        29.2244 
 189   0.0000       1.089611        29.6498 
 190   0.0000       1.105178        30.0734 
 191   0.0000       1.109250        30.1842 
 192   0.0000       1.113812        30.3084 
 193   0.0000       1.124081        30.5878 
 194   0.0000       1.143873        31.1264 
 195   0.0000       1.150722        31.3127 
 196   0.0000       1.164593        31.6902 
 197   0.0000       1.179664        32.1003 
 198   0.0000       1.184277        32.2258 
 199   0.0000       1.195073        32.5196 
 200   0.0000       1.199275        32.6339 
 201   0.0000       1.209378        32.9088 
 202   0.0000       1.222981        33.2790 
 203   0.0000       1.226866        33.3847 
 204   0.0000       1.236951        33.6591 
 205   0.0000       1.241739        33.7894 
 206   0.0000       1.252412        34.0799 
 207   0.0000       1.265758        34.4430 
 208   0.0000       1.277945        34.7746 
 209   0.0000       1.283706        34.9314 
 210   0.0000       1.304840        35.5065 
 211   0.0000       1.311598        35.6904 
 212   0.0000       1.317461        35.8499 
 213   0.0000       1.335388        36.3378 
 214   0.0000       1.339771        36.4570 
 215   0.0000       1.352413        36.8010 
 216   0.0000       1.359029        36.9811 
 217   0.0000       1.365252        37.1504 
 218   0.0000       1.371227        37.3130 
 219   0.0000       1.376535        37.4574 
 220   0.0000       1.380651        37.5694 
 221   0.0000       1.409297        38.3489 
 222   0.0000       1.416061        38.5330 
 223   0.0000       1.433130        38.9975 
 224   0.0000       1.439739        39.1773 
 225   0.0000       1.444091        39.2957 
 226   0.0000       1.463789        39.8317 
 227   0.0000       1.483714        40.3739 
 228   0.0000       1.490553        40.5600 
 229   0.0000       1.497284        40.7432 
 230   0.0000       1.504807        40.9479 
 231   0.0000       1.518725        41.3266 
 232   0.0000       1.527801        41.5736 
 233   0.0000       1.538474        41.8640 
 234   0.0000       1.551086        42.2072 
 235   0.0000       1.554704        42.3057 
 236   0.0000       1.557888        42.3923 
 237   0.0000       1.568525        42.6817 
 238   0.0000       1.578000        42.9396 
 239   0.0000       1.594311        43.3834 
 240   0.0000       1.604098        43.6497 
 241   0.0000       1.614921        43.9442 
 242   0.0000       1.621354        44.1193 
 243   0.0000       1.639581        44.6153 
 244   0.0000       1.643631        44.7255 
 245   0.0000       1.657827        45.1118 
 246   0.0000       1.667798        45.3831 
 247   0.0000       1.670578        45.4587 
 248   0.0000       1.687053        45.9070 
 249   0.0000       1.702171        46.3184 
 250   0.0000       1.712124        46.5893 
 251   0.0000       1.730668        47.0939 
 252   0.0000       1.747328        47.5472 
 253   0.0000       1.769237        48.1434 
 254   0.0000       1.772243        48.2252 
 255   0.0000       1.792405        48.7738 
 256   0.0000       1.798826        48.9485 
 257   0.0000       1.809583        49.2413 
 258   0.0000       1.830350        49.8064 
 259   0.0000       1.849393        50.3246 
 260   0.0000       1.855531        50.4916 
 261   0.0000       1.867217        50.8095 
 262   0.0000       1.881320        51.1933 
 263   0.0000       1.883831        51.2617 
 264   0.0000       1.900896        51.7260 
 265   0.0000       1.912347        52.0376 
 266   0.0000       1.929305        52.4991 
 267   0.0000       1.965288        53.4782 
 268   0.0000       1.976881        53.7937 
 269   0.0000       1.987486        54.0822 
 270   0.0000       1.994713        54.2789 
 271   0.0000       2.001012        54.4503 
 272   0.0000       2.010698        54.7139 
 273   0.0000       2.019327        54.9487 
 274   0.0000       2.031669        55.2845 
 275   0.0000       2.047686        55.7204 
 276   0.0000       2.053347        55.8744 
 277   0.0000       2.059684        56.0468 
 278   0.0000       2.072141        56.3858 
 279   0.0000       2.076768        56.5117 
 280   0.0000       2.079005        56.5726 
 281   0.0000       2.103930        57.2509 
 282   0.0000       2.131603        58.0039 
 283   0.0000       2.151806        58.5536 
 284   0.0000       2.174069        59.1594 
 285   0.0000       2.192572        59.6629 
 286   0.0000       2.203022        59.9473 
 287   0.0000       2.221673        60.4548 
 288   0.0000       2.229945        60.6799 
 289   0.0000       2.240478        60.9665 
 290   0.0000       2.286094        62.2078 
 291   0.0000       2.295130        62.4537 
 292   0.0000       2.308798        62.8256 
 293   0.0000       2.310171        62.8630 
 294   0.0000       2.326026        63.2944 
 295   0.0000       2.346836        63.8606 
 296   0.0000       2.363564        64.3159 
 297   0.0000       2.383401        64.8556 
 298   0.0000       2.405616        65.4601 
 299   0.0000       2.411648        65.6243 
 300   0.0000       2.458404        66.8966 
 301   0.0000       2.468977        67.1843 
 302   0.0000       2.484488        67.6064 
 303   0.0000       2.502023        68.0835 
 304   0.0000       2.536872        69.0318 
 305   0.0000       2.543491        69.2119 
 306   0.0000       2.577303        70.1320 
 307   0.0000       2.585423        70.3529 
 308   0.0000       2.605054        70.8871 
 309   0.0000       2.611668        71.0671 
 310   0.0000       2.623431        71.3872 
 311   0.0000       2.640405        71.8491 
 312   0.0000       2.648387        72.0663 
 313   0.0000       2.673875        72.7598 
 314   0.0000       2.682029        72.9817 
 315   0.0000       2.705836        73.6295 
 316   0.0000       2.710826        73.7653 
 317   0.0000       2.734417        74.4073 
 318   0.0000       2.737877        74.5014 
 319   0.0000       2.750562        74.8466 
 320   0.0000       2.758017        75.0495 
 321   0.0000       2.768061        75.3228 
 322   0.0000       2.784698        75.7755 
 323   0.0000       2.789767        75.9134 
 324   0.0000       2.801725        76.2388 
 325   0.0000       2.812529        76.5328 
 326   0.0000       2.816058        76.6288 
 327   0.0000       2.825548        76.8871 
 328   0.0000       2.830617        77.0250 
 329   0.0000       2.838738        77.2460 
 330   0.0000       2.846894        77.4679 
 331   0.0000       2.865192        77.9658 
 332   0.0000       2.871823        78.1463 
 333   0.0000       2.886633        78.5493 
 334   0.0000       2.889514        78.6277 
 335   0.0000       2.895221        78.7830 
 336   0.0000       2.900424        78.9246 
 337   0.0000       2.923528        79.5532 
 338   0.0000       2.925144        79.5972 
 339   0.0000       2.932967        79.8101 
 340   0.0000       2.949551        80.2614 
 341   0.0000       2.964724        80.6742 
 342   0.0000       2.977885        81.0324 
 343   0.0000       2.983269        81.1789 
 344   0.0000       3.002600        81.7049 
 345   0.0000       3.013195        81.9932 
 346   0.0000       3.017695        82.1157 
 347   0.0000       3.022239        82.2393 
 348   0.0000       3.040266        82.7299 
 349   0.0000       3.046628        82.9030 
 350   0.0000       3.050645        83.0123 
 351   0.0000       3.055156        83.1350 
 352   0.0000       3.067674        83.4757 
 353   0.0000       3.076048        83.7035 
 354   0.0000       3.091829        84.1329 
 355   0.0000       3.093948        84.1906 
 356   0.0000       3.101958        84.4086 
 357   0.0000       3.109734        84.6202 
 358   0.0000       3.119864        84.8958 
 359   0.0000       3.130635        85.1889 
 360   0.0000       3.145955        85.6058 
 361   0.0000       3.151396        85.7538 
 362   0.0000       3.163362        86.0794 
 363   0.0000       3.173136        86.3454 
 364   0.0000       3.188962        86.7761 
 365   0.0000       3.197175        86.9995 
 366   0.0000       3.201233        87.1100 
 367   0.0000       3.205937        87.2380 
 368   0.0000       3.210514        87.3625 
 369   0.0000       3.219804        87.6153 
 370   0.0000       3.234069        88.0035 
 371   0.0000       3.238073        88.1125 
 372   0.0000       3.241781        88.2133 
 373   0.0000       3.255793        88.5946 
 374   0.0000       3.261795        88.7580 
 375   0.0000       3.270544        88.9960 
 376   0.0000       3.279505        89.2399 
 377   0.0000       3.289954        89.5242 
 378   0.0000       3.296381        89.6991 
 379   0.0000       3.302505        89.8657 
 380   0.0000       3.313607        90.1678 
 381   0.0000       3.323845        90.4464 
 382   0.0000       3.330435        90.6257 
 383   0.0000       3.336243        90.7838 
 384   0.0000       3.347916        91.1014 
 385   0.0000       3.352044        91.2137 
 386   0.0000       3.360527        91.4446 
 387   0.0000       3.374199        91.8166 
 388   0.0000       3.384420        92.0948 
 389   0.0000       3.396721        92.4295 
 390   0.0000       3.408920        92.7614 
 391   0.0000       3.411942        92.8437 
 392   0.0000       3.417539        92.9960 
 393   0.0000       3.420335        93.0720 
 394   0.0000       3.426999        93.2534 
 395   0.0000       3.455018        94.0158 
 396   0.0000       3.458303        94.1052 
 397   0.0000       3.464376        94.2705 
 398   0.0000       3.475008        94.5598 
 399   0.0000       3.485390        94.8423 
 400   0.0000       3.489895        94.9649 
 401   0.0000       3.502571        95.3098 
 402   0.0000       3.507922        95.4554 
 403   0.0000       3.515361        95.6578 
 404   0.0000       3.529178        96.0338 
 405   0.0000       3.544167        96.4417 
 406   0.0000       3.546614        96.5083 
 407   0.0000       3.560282        96.8802 
 408   0.0000       3.571829        97.1944 
 409   0.0000       3.583018        97.4989 
 410   0.0000       3.595711        97.8443 
 411   0.0000       3.603203        98.0481 
 412   0.0000       3.607504        98.1652 
 413   0.0000       3.620358        98.5149 
 414   0.0000       3.641209        99.0823 
 415   0.0000       3.656870        99.5085 
 416   0.0000       3.660177        99.5985 
 417   0.0000       3.665834        99.7524 
 418   0.0000       3.678548       100.0984 
 419   0.0000       3.690079       100.4122 
 420   0.0000       3.696431       100.5850 
 421   0.0000       3.704129       100.7945 
 422   0.0000       3.719588       101.2151 
 423   0.0000       3.730983       101.5252 
 424   0.0000       3.732144       101.5568 
 425   0.0000       3.748359       101.9980 
 426   0.0000       3.758077       102.2625 
 427   0.0000       3.765424       102.4624 
 428   0.0000       3.772496       102.6548 
 429   0.0000       3.788474       103.0896 
 430   0.0000       3.807430       103.6054 
 431   0.0000       3.834410       104.3396 
 432   0.0000       3.838348       104.4468 
 433   0.0000       3.857929       104.9796 
 434   0.0000       3.878985       105.5525 
 435   0.0000       3.882136       105.6383 
 436   0.0000       3.891197       105.8849 
 437   0.0000       3.896963       106.0417 
 438   0.0000       3.905589       106.2765 
 439   0.0000       3.913341       106.4874 
 440   0.0000       3.917451       106.5992 
 441   0.0000       3.925563       106.8200 
 442   0.0000       3.931459       106.9804 
 443   0.0000       3.945473       107.3618 
 444   0.0000       3.980348       108.3108 
 445   0.0000       3.987471       108.5046 
 446   0.0000       3.990970       108.5998 
 447   0.0000       3.999600       108.8347 
 448   0.0000       4.017025       109.3088 
 449   0.0000       4.017721       109.3278 
 450   0.0000       4.046657       110.1151 
 451   0.0000       4.047741       110.1446 
 452   0.0000       4.057890       110.4208 
 453   0.0000       4.066113       110.6446 
 454   0.0000       4.076891       110.9379 
 455   0.0000       4.088497       111.2536 
 456   0.0000       4.101197       111.5992 
 457   0.0000       4.106782       111.7512 
 458   0.0000       4.123263       112.1997 
 459   0.0000       4.127191       112.3066 
 460   0.0000       4.147256       112.8526 
 461   0.0000       4.157488       113.1310 
 462   0.0000       4.186754       113.9274 
 463   0.0000       4.201308       114.3234 
 464   0.0000       4.208286       114.5133 
 465   0.0000       4.218635       114.7949 
 466   0.0000       4.223598       114.9300 
 467   0.0000       4.235044       115.2414 
 468   0.0000       4.241523       115.4177 
 469   0.0000       4.256070       115.8136 
 470   0.0000       4.258749       115.8865 
 471   0.0000       4.269145       116.1693 
 472   0.0000       4.272903       116.2716 
 473   0.0000       4.303158       117.0949 
 474   0.0000       4.314124       117.3933 
 475   0.0000       4.316997       117.4715 
 476   0.0000       4.326230       117.7227 
 477   0.0000       4.337264       118.0230 
 478   0.0000       4.355849       118.5287 
 479   0.0000       4.370388       118.9243 
 480   0.0000       4.378729       119.1513 
 481   0.0000       4.397776       119.6696 
 482   0.0000       4.411677       120.0478 
 483   0.0000       4.426392       120.4482 
 484   0.0000       4.449484       121.0766 
 485   0.0000       4.460830       121.3854 
 486   0.0000       4.493620       122.2776 
 487   0.0000       4.523920       123.1021 
 488   0.0000       4.530538       123.2822 
 489   0.0000       4.546334       123.7120 
 490   0.0000       4.557385       124.0127 
 491   0.0000       4.566335       124.2563 
 492   0.0000       4.596902       125.0881 
 493   0.0000       4.624609       125.8420 
 494   0.0000       4.633128       126.0738 
 495   0.0000       4.638064       126.2081 
 496   0.0000       4.658293       126.7586 
 497   0.0000       4.687646       127.5573 
 498   0.0000       4.690498       127.6350 
 499   0.0000       4.718871       128.4070 
 500   0.0000       4.734243       128.8253 
 501   0.0000       4.749013       129.2272 
 502   0.0000       4.767604       129.7331 
 503   0.0000       4.785287       130.2143 
 504   0.0000       4.794839       130.4742 
 505   0.0000       4.811089       130.9164 
 506   0.0000       4.831134       131.4619 
 507   0.0000       4.842419       131.7689 
 508   0.0000       4.871633       132.5639 
 509   0.0000       4.899185       133.3136 
 510   0.0000       4.911545       133.6499 
 511   0.0000       4.920122       133.8833 
 512   0.0000       4.927588       134.0865 
 513   0.0000       4.947703       134.6338 
 514   0.0000       4.961947       135.0214 
 515   0.0000       4.968994       135.2132 
 516   0.0000       4.987601       135.7195 
 517   0.0000       4.991776       135.8331 
 518   0.0000       5.005868       136.2166 
 519   0.0000       5.010538       136.3437 
 520   0.0000       5.038833       137.1136 
 521   0.0000       5.059867       137.6860 
 522   0.0000       5.095927       138.6672 
 523   0.0000       5.114704       139.1782 
 524   0.0000       5.124892       139.4554 
 525   0.0000       5.152699       140.2121 
 526   0.0000       5.156084       140.3042 
 527   0.0000       5.184109       141.0668 
 528   0.0000       5.191777       141.2754 
 529   0.0000       5.204861       141.6315 
 530   0.0000       5.246111       142.7539 
 531   0.0000       5.258499       143.0910 
 532   0.0000       5.269148       143.3808 
 533   0.0000       5.299031       144.1940 
 534   0.0000       5.326902       144.9524 
 535   0.0000       5.339879       145.3055 
 536   0.0000       5.371902       146.1769 
 537   0.0000       5.378553       146.3579 
 538   0.0000       5.389810       146.6642 
 539   0.0000       5.401089       146.9711 
 540   0.0000       5.430333       147.7669 
 541   0.0000       5.450860       148.3254 
 542   0.0000       5.481202       149.1511 
 543   0.0000       5.502724       149.7367 
 544   0.0000       5.508947       149.9061 
 545   0.0000       5.538632       150.7138 
 546   0.0000       5.560420       151.3067 
 547   0.0000       5.565318       151.4400 
 548   0.0000       5.607117       152.5774 
 549   0.0000       5.626010       153.0915 
 550   0.0000       5.637010       153.3908 
 551   0.0000       5.644651       153.5988 
 552   0.0000       5.660248       154.0232 
 553   0.0000       5.673629       154.3873 
 554   0.0000       5.694238       154.9481 
 555   0.0000       5.714767       155.5067 
 556   0.0000       5.741947       156.2463 
 557   0.0000       5.784651       157.4084 
 558   0.0000       5.838287       158.8679 
 559   0.0000       5.850882       159.2106 
 560   0.0000       5.920312       161.0999 
 561   0.0000       5.924494       161.2137 
 562   0.0000       5.928257       161.3161 
 563   0.0000       5.939333       161.6175 
 564   0.0000       6.007891       163.4830 
 565   0.0000       6.046992       164.5470 
 566   0.0000       6.063641       165.0001 
 567   0.0000       6.099189       165.9674 
 568   0.0000       6.101793       166.0382 
 569   0.0000       6.172088       167.9511 
 570   0.0000       6.214959       169.1176 
 571   0.0000       6.299219       171.4105 
 572   0.0000       6.323195       172.0629 
 573   0.0000       6.328315       172.2022 
 574   0.0000       6.361199       173.0970 
 575   0.0000       6.427629       174.9047 
 576   0.0000       6.433497       175.0643 
 577   0.0000       6.437073       175.1617 
 578   0.0000       6.459798       175.7800 
 579   0.0000       6.502704       176.9476 
 580   0.0000       6.535438       177.8383 
 581   0.0000       6.547513       178.1669 
 582   0.0000       6.570412       178.7900 
 583   0.0000       6.573140       178.8642 
 584   0.0000       6.591489       179.3635 
 585   0.0000       6.672052       181.5558 
 586   0.0000       6.686693       181.9542 
 587   0.0000       6.711465       182.6282 
 588   0.0000       6.714397       182.7080 
 589   0.0000       6.738328       183.3592 
 590   0.0000       6.845807       186.2839 
 591   0.0000       6.850743       186.4182 
 592   0.0000       6.875621       187.0952 
 593   0.0000       6.903883       187.8642 
 594   0.0000       6.966011       189.5548 
 595   0.0000       7.009243       190.7312 
 596   0.0000       7.094094       193.0401 
 597   0.0000       7.096687       193.1107 
 598   0.0000       7.264895       197.6879 
 599   0.0000       7.291094       198.4008 
 600   0.0000       7.427963       202.1251 
 601   0.0000       7.468445       203.2267 
 602   0.0000       7.500515       204.0994 
 603   0.0000       7.576187       206.1585 
 604   0.0000      22.686783       617.3387 
 605   0.0000      23.056822       627.4080 
 606   0.0000      23.083363       628.1302 
 607   0.0000      23.170999       630.5149 
 608   0.0000      23.247708       632.6023 
 609   0.0000      23.281763       633.5290 
 610   0.0000      23.349875       635.3824 
 611   0.0000      23.421757       637.3384 
 612   0.0000      23.490111       639.1984 
 613   0.0000      24.082590       655.3206 
 614   0.0000      32.668042       888.9426 
 615   0.0000      43.863039      1193.5740 
 616   0.0000      43.898353      1194.5349 
 617   0.0000      43.956967      1196.1299 
 618   0.0000      43.997532      1197.2337 

                    ********************************
                    * MULLIKEN POPULATION ANALYSIS *
                    ********************************

-----------------------
MULLIKEN ATOMIC CHARGES
-----------------------
   0 O :   -0.262644
   1 O :   -0.326253
   2 O :   -0.271492
   3 O :   -0.332751
   4 N :   -0.324137
   5 C :   -0.164312
   6 C :    0.104508
   7 C :    0.037459
   8 C :   -0.135013
   9 C :   -0.145677
  10 C :   -0.148757
  11 C :   -0.159023
  12 C :   -0.052900
  13 C :    0.279126
  14 C :    0.354831
  15 H :    0.093636
  16 H :    0.085635
  17 H :    0.102066
  18 H :    0.145017
  19 H :    0.126613
  20 H :    0.160167
  21 H :    0.151239
  22 H :    0.123944
  23 H :    0.136741
  24 H :    0.215025
  25 H :    0.206951
Sum of atomic charges:   -0.0000000

--------------------------------
MULLIKEN REDUCED ORBITAL CHARGES
--------------------------------
  0 O s       :     3.751724  s :     3.751724
      pz      :     1.564179  p :     4.483786
      px      :     1.601994
      py      :     1.317614
      dz2     :     0.006817  d :     0.025854
      dxz     :     0.007303
      dyz     :     0.002915
      dx2y2   :     0.006526
      dxy     :     0.002292
      f0      :     0.000155  f :     0.001280
      f+1     :     0.000345
      f-1     :     0.000117
      f+2     :     0.000233
      f-2     :     0.000263
      f+3     :     0.000045
      f-3     :     0.000122

  1 O s       :     3.806208  s :     3.806208
      pz      :     1.482785  p :     4.488553
      px      :     1.441314
      py      :     1.564454
      dz2     :     0.006018  d :     0.029711
      dxz     :     0.004478
      dyz     :     0.006474
      dx2y2   :     0.006312
      dxy     :     0.006429
      f0      :     0.000123  f :     0.001781
      f+1     :     0.000184
      f-1     :     0.000357
      f+2     :     0.000299
      f-2     :     0.000305
      f+3     :     0.000215
      f-3     :     0.000298

  2 O s       :     3.748952  s :     3.748952
      pz      :     1.620813  p :     4.495810
      px      :     1.271682
      py      :     1.603314
      dz2     :     0.004884  d :     0.025481
      dxz     :     0.002857
      dyz     :     0.006370
      dx2y2   :     0.004588
      dxy     :     0.006782
      f0      :     0.000148  f :     0.001249
      f+1     :     0.000201
      f-1     :     0.000197
      f+2     :     0.000215
      f-2     :     0.000287
      f+3     :     0.000080
      f-3     :     0.000120

  3 O s       :     3.814290  s :     3.814290
      pz      :     1.475281  p :     4.487274
      px      :     1.653425
      py      :     1.358569
      dz2     :     0.004450  d :     0.029428
      dxz     :     0.003189
      dyz     :     0.007200
      dx2y2   :     0.007654
      dxy     :     0.006935
      f0      :     0.000111  f :     0.001759
      f+1     :     0.000095
      f-1     :     0.000329
      f+2     :     0.000227
      f-2     :     0.000283
      f+3     :     0.000309
      f-3     :     0.000405

  4 N s       :     3.514443  s :     3.514443
      pz      :     1.435515  p :     3.772436
      px      :     1.251206
      py      :     1.085714
      dz2     :     0.006803  d :     0.035691
      dxz     :     0.007466
      dyz     :     0.004194
      dx2y2   :     0.011545
      dxy     :     0.005683
      f0      :     0.000128  f :     0.001567
      f+1     :     0.000346
      f-1     :     0.000106
      f+2     :     0.000266
      f-2     :     0.000093
      f+3     :     0.000285
      f-3     :     0.000343

  5 C s       :     3.231415  s :     3.231415
      pz      :     0.940343  p :     2.838173
      px      :     0.874827
      py      :     1.023003
      dz2     :     0.019591  d :     0.089119
      dxz     :     0.021563
      dyz     :     0.012129
      dx2y2   :     0.022637
      dxy     :     0.013199
      f0      :     0.000738  f :     0.005606
      f+1     :     0.001118
      f-1     :     0.000500
      f+2     :     0.000909
      f-2     :     0.000580
      f+3     :     0.000796
      f-3     :     0.000965

  6 C s       :     3.084103  s :     3.084103
      pz      :     0.953600  p :     2.643302
      px      :     0.799680
      py      :     0.890022
      dz2     :     0.026968  d :     0.157911
      dxz     :     0.043751
      dyz     :     0.022245
      dx2y2   :     0.039290
      dxy     :     0.025656
      f0      :     0.001247  f :     0.010176
      f+1     :     0.001671
      f-1     :     0.000914
      f+2     :     0.001635
      f-2     :     0.001054
      f+3     :     0.001938
      f-3     :     0.001718

  7 C s       :     3.285302  s :     3.285302
      pz      :     0.875070  p :     2.532462
      px      :     0.794780
      py      :     0.862613
      dz2     :     0.021926  d :     0.135080
      dxz     :     0.026388
      dyz     :     0.017610
      dx2y2   :     0.034957
      dxy     :     0.034200
      f0      :     0.000709  f :     0.009697
      f+1     :     0.001177
      f-1     :     0.001486
      f+2     :     0.001682
      f-2     :     0.001108
      f+3     :     0.001642
      f-3     :     0.001892

  8 C s       :     3.176286  s :     3.176286
      pz      :     0.984655  p :     2.855902
      px      :     0.941201
      py      :     0.930046
      dz2     :     0.008440  d :     0.095341
      dxz     :     0.023106
      dyz     :     0.013570
      dx2y2   :     0.018638
      dxy     :     0.031587
      f0      :     0.000681  f :     0.007484
      f+1     :     0.000653
      f-1     :     0.001053
      f+2     :     0.001052
      f-2     :     0.001150
      f+3     :     0.001299
      f-3     :     0.001595

  9 C s       :     3.163795  s :     3.163795
      pz      :     0.964544  p :     2.877954
      px      :     0.927757
      py      :     0.985653
      dz2     :     0.012952  d :     0.096358
      dxz     :     0.021474
      dyz     :     0.010669
      dx2y2   :     0.025352
      dxy     :     0.025910
      f0      :     0.000750  f :     0.007571
      f+1     :     0.001075
      f-1     :     0.000760
      f+2     :     0.001482
      f-2     :     0.000854
      f+3     :     0.001471
[...]
 15 H      0.9064     1.0000     0.0936     1.0248     1.0248     0.0000
 16 H      0.9144     1.0000     0.0856     1.0090     1.0090     0.0000
 17 H      0.8979     1.0000     0.1021     1.0227     1.0227     0.0000
 18 H      0.8550     1.0000     0.1450     1.0056     1.0056    -0.0000
 19 H      0.8734     1.0000     0.1266     1.0044     1.0044    -0.0000
 20 H      0.8398     1.0000     0.1602     1.0149     1.0149     0.0000
 21 H      0.8488     1.0000     0.1512     1.0156     1.0156    -0.0000
 22 H      0.8761     1.0000     0.1239     1.0315     1.0315     0.0000
 23 H      0.8633     1.0000     0.1367     1.0434     1.0434    -0.0000
 24 H      0.7850     1.0000     0.2150     1.0408     1.0408     0.0000
 25 H      0.7930     1.0000     0.2070     1.0451     1.0451     0.0000

  Mayer bond orders larger than 0.100000
B(  0-O , 13-C ) :   1.2232 B(  0-O , 24-H ) :   0.9592 B(  1-O , 13-C ) :   2.0610 
B(  2-O , 12-C ) :  -0.1134 B(  2-O , 14-C ) :   1.2180 B(  2-O , 25-H ) :   0.9633 
B(  3-O , 14-C ) :   2.0563 B(  4-N ,  6-C ) :   1.0026 B(  4-N , 22-H ) :   0.9997 
B(  4-N , 23-H ) :   0.9904 B(  5-C ,  6-C ) :   0.9148 B(  5-C ,  7-C ) :   0.8698 
B(  5-C , 15-H ) :   0.9945 B(  5-C , 16-H ) :   0.9934 B(  6-C , 13-C ) :   0.9147 
B(  6-C , 17-H ) :   0.9714 B(  7-C ,  8-C ) :   1.3272 B(  7-C ,  9-C ) :   1.3525 
B(  8-C , 10-C ) :   1.4692 B(  8-C , 18-H ) :   0.9629 B(  9-C , 11-C ) :   1.4958 
B(  9-C , 19-H ) :   0.9608 B( 10-C , 12-C ) :   1.3862 B( 10-C , 20-H ) :   0.9465 
B( 11-C , 12-C ) :   1.3641 B( 11-C , 21-H ) :   0.9459 B( 12-C , 14-C ) :   0.9976 


-------
TIMINGS
-------

Total SCF time: 0 days 0 hours 4 min 21 sec 

Total time                  ....     261.054 sec
Sum of individual times     ....     249.979 sec  ( 95.8%)

SCF preparation             ....       0.484 sec  (  0.2%)
Fock matrix formation       ....     245.871 sec  ( 94.2%)
  Startup                   ....       0.025 sec  (  0.0% of F)
  Split-RI-J                ....      20.353 sec  (  8.3% of F)
  Chain of spheres X        ....     208.531 sec  ( 84.8% of F)
  XC integration            ....      27.736 sec  ( 11.3% of F)
    XC Preparation          ....       0.000 sec  (  0.0% of XC)
    Basis function eval.    ....       6.396 sec  ( 23.1% of XC)
    Density eval.           ....       7.464 sec  ( 26.9% of XC)
    XC-Functional eval.     ....       0.494 sec  (  1.8% of XC)
    XC-Potential eval.      ....      12.768 sec  ( 46.0% of XC)
Diagonalization             ....       0.000 sec  (  0.0%)
Density matrix formation    ....       0.187 sec  (  0.1%)
Total Energy calculation    ....       0.081 sec  (  0.0%)
Population analysis         ....       1.223 sec  (  0.5%)
Orbital Transformation      ....       0.257 sec  (  0.1%)
Orbital Orthonormalization  ....       0.000 sec  (  0.0%)
DIIS solution               ....       1.151 sec  (  0.4%)
  MO trafo                  ....       0.000 sec  (  0.0 % of DIIS)
  Orb grad                  ....       0.000 sec  (  0.0 % of DIIS)
  Energy W gradient         ....       0.000 sec  (  0.0 % of DIIS)
  DIIS error                ....       0.241 sec  ( 21.0 % of DIIS)
  DIIS work                 ....       0.755 sec  ( 65.6 % of DIIS)
  Form Q                    ....       0.000 sec  (  0.0 % of DIIS)
  Form QpQm                 ....       0.000 sec  (  0.0 % of DIIS)
  Exp/Cayley                ....       0.000 sec  (  0.0 % of DIIS)
  Orb update                ....       0.000 sec  (  0.0 % of DIIS)
  Wake-sleep                ....       0.023 sec  (  2.0 % of DIIS)
SOSCF solution              ....       0.725 sec  (  0.3%)
  MO trafo                  ....       0.294 sec  ( 40.5 % of SOSCF)
  Orb grad                  ....       0.012 sec  (  1.6 % of SOSCF)
  Rot update                ....       0.025 sec  (  3.5 % of SOSCF)
  Step                      ....       0.381 sec  ( 52.6 % of SOSCF)
Finished LeanSCF after 261.1 sec

Maximum memory used throughout the entire LEANSCF-calculation: 85.8 MB


-------------------------------------------------------------------------------
                          DFT DISPERSION CORRECTION                            
                                                                               
                              DFTD3 V3.1  Rev 1                                
                          USING Becke-Johnson damping                          
-------------------------------------------------------------------------------
The B3LYP functional is recognized
Active option DFTDOPT                   ...         4   

molecular C6(AA) [au] = 7263.881416 


            DFT-D V3
 parameters
 s6 scaling factor         :     1.0000 
 a1 scaling factor         :     0.3981 
 s8 scaling factor         :     1.9889 
 a2 scaling factor         :     4.4211 
 ad hoc parameters k1-k3   :    16.0000     1.3333    -4.0000 

 Edisp/kcal,au: -31.916078359521  -0.050861502932 
 E6   /kcal   : -15.113710268 
 E8   /kcal   : -16.802368092 
 % E8         :  52.645465719 

-------------------------   ----------------
Dispersion correction           -0.050861503
-------------------------   ----------------


-------------------------   --------------------
FINAL SINGLE POINT ENERGY      -743.324730663410
-------------------------   --------------------



           ************************************************************
           *        Program running with 2 parallel MPI-processes     *
           *              working on a common directory               *
           ************************************************************
------------------------------------------------------------------------------
                            ORCA SCF RESPONSE CALCULATION
------------------------------------------------------------------------------

GBWName                                 ... /kaggle/working/Phe-COOH-2/Phe-COOH_InterFrag.gbw
Number of atoms                         ...     26
Number of basis functions               ...    619
Max core memory                         ...   3000 MB

Electric field perturbation             ... YES
Quadrupolar field perturbation          ...  NO
Magnetic field perturbation (no GIAO)   ...  NO
Magnetic field perturbation (with GIAO) ...  NO
Linear momentum (velocity) perturbation ...  NO
Spin-orbit coupling perturbation        ...  NO
Choice of electric origin               ... Center of mass
Position of electric origin             ...     0.012745    -0.061890    -0.090766
Choice of magnetic origin               ... GIAO
Position of magnetic origin             ...     0.000000     0.000000     0.000000
Nuclear geometric perturbations         ...  NO (  78 perturbations)
Nucleus-orbit perturbations             ...  NO (   0 perturbations)
Spin-dipole/Fermi contact perturbations ...  NO (   0 perturbations)

Total number of real perturbations      ...      3
Total number of imaginary perturbations ...      0
Total number of triplet perturbations   ...      0
Total number of SOC perturbations       ...      0

Using XC Grid                  ... (/kaggle/working/Phe-COOH-2/Phe-COOH_InterFrag.grid_cpscf.tmp) 
Recalculating density on grid  ... (/kaggle/working/Phe-COOH-2/Phe-COOH_InterFrag.grho_cpscf0.tmp) done
Calculating the xc-kernel      ... (/kaggle/working/Phe-COOH-2/Phe-COOH_InterFrag.fxc_cpscf0.tmp) done

                                **********************
                                * REAL PERTURBATIONS *
                                **********************



-------------------
SHARK CP-SCF DRIVER
-------------------

Dimension of the orbital basis          ...    619
Dimension of the CPSCF-problem          ...  31020
Number of operators                     ...      1
Max. number of iterations               ...    128
Convergence Tolerance                   ... 1.0e-04
Number of perturbations                 ...      3
Perturbation type                       ... REAL

----------------------------
POPLE LINEAR EQUATION SOLVER
----------------------------

  ITERATION   0:   ||err||_max =   2.1929e+01 (  12.3 sec   0/  3 done)
  ITERATION   1:   ||err||_max =   1.4600e+00 (  11.3 sec   0/  3 done)
  ITERATION   2:   ||err||_max =   5.4610e-01 (  11.2 sec   0/  3 done)
  ITERATION   3:   ||err||_max =   1.4662e-01 (  11.2 sec   0/  3 done)
  ITERATION   4:   ||err||_max =   6.8322e-02 (  11.3 sec   0/  3 done)
  ITERATION   5:   ||err||_max =   2.2726e-02 (  11.3 sec   0/  3 done)
  ITERATION   6:   ||err||_max =   7.8574e-03 (  11.2 sec   0/  3 done)
  ITERATION   7:   ||err||_max =   2.6997e-03 (  11.1 sec   0/  3 done)
  ITERATION   8:   ||err||_max =   8.7291e-04 (  11.1 sec   0/  3 done)
  ITERATION   9:   ||err||_max =   2.8505e-04 (  11.2 sec   0/  3 done)
  ITERATION  10:   ||err||_max =   1.1696e-04 (  11.1 sec   2/  3 done)
  ITERATION  11:   ||err||_max =   3.8874e-05 (   8.2 sec   3/  3 done)

CP-SCF equations solved in 132.4 sec
Response densities calculated in   0.0 sec

Maximum memory used throughout the entire SCFRESP-calculation: 113.6 MB


           ************************************************************
           *        Program running with 2 parallel MPI-processes     *
           *              working on a common directory               *
           ************************************************************

------------------------------------------------------------------------------
                              ORCA PROPERTY CALCULATIONS
------------------------------------------------------------------------------

GBWName                                 ... /kaggle/working/Phe-COOH-2/Phe-COOH_InterFrag.gbw
Number of atoms                         ...     26
Number of basis functions               ...    619
Max core memory                         ...   3000 MB

Electric properties:
Dipole moment                           ... YES
Quadrupole moment                       ...  NO
Static polarizability (Dipole/Dipole)   ... YES
Static polarizability (Dipole/Quad.)    ...  NO
Static polarizability (Quad./Quad.)     ...  NO
Static polarizability (Velocity)        ...  NO
Static hyperpolarizability              ...  NO

Atomic electric properties:
Dipole moment                           ...  NO
Quadrupole moment                       ...  NO
Static polarizability                   ...  NO

Choice of electric origin               ... Center of mass
Position of electric origin             ...     0.012745    -0.061890    -0.090766

General magnetic properties:
Magnetizability                         ...  NO

EPR properties:
g-Tensor (aka g-matrix)                 ...  NO
Zero-Field splitting spin-orbit         ...  NO
Zero-field splitting spin-spin          ...  NO
Hyperfine couplings                     ...  NO (   0 nuclei)
Quadrupole couplings                    ...  NO (   0 nuclei)
Contact density                         ...  NO (   0 nuclei)

NMR properties:
Chemical shifts                         ...  NO (   0 nuclei)
Spin-rotation constants                 ...  NO (   0 nuclei)
Spin-spin couplings                     ...  NO (   0 nuclei,    0 pairs)

Choice of magnetic origin               ... GIAO
Position of magnetic origin             ...     0.000000     0.000000     0.000000

Properties with geometric perturbations:
SCF Hessian                             ...  NO
IR spectrum                             ...  NO
VCD spectrum                            ...  NO
X-ray spectroscopy properties:
SCF XES/XAS/RIXS spectra                ...  NO

SCF SOC stabilization energy            ...  NO
Diagonal Born-Oppenheimer correction    ...  NO

-------------
DIPOLE MOMENT
-------------

Method             : SCF
Type of density    : Electron Density
Multiplicity       :   1
Irrep              :   0
Energy             :  -743.2738691604774885 Eh
Basis              : AO
                                X                 Y                 Z
Electronic contribution:      8.020314536      -4.924823824      -1.721706238
Nuclear contribution   :     -7.946447181       6.081182200       1.548871798
                        -----------------------------------------
Total Dipole Moment    :      0.073867356       1.156358376      -0.172834439
                        -----------------------------------------
Magnitude (a.u.)       :      1.171534388
Magnitude (Debye)      :      2.977803765



--------------------
Rotational spectrum 
--------------------
 
Rotational constants in cm-1:             0.048453             0.009521             0.008948 
Rotational constants in MHz :          1452.593926           285.428365           268.264656 

Dipole components along the rotational axes: 
x,y,z [a.u.] :     0.008286     1.153715    -0.203384 
x,y,z [Debye]:     0.021062     2.932512    -0.516960 

 

Dipole moment calculation done in   0.0 sec 


---------------------------------------------------
STATIC POLARIZABILITY TENSOR (Dipole/Dipole)
---------------------------------------------------

Method             : SCF
Type of density    : Electron Density
Type of derivative : Electric Field (Direction=X)
Multiplicity       :   1
Irrep              :   0
Basis              : AO

The raw cartesian tensor (atomic units):
     187.602486199       -17.006289347       -16.299002189  
     -17.006289347       127.921270425       -12.500494036  
     -16.299002189       -12.500494036       102.679003578  
diagonalized tensor: 
      92.536378900       131.756575185       193.909806116  

Orientation: 
       0.225755577         0.135477171        -0.964717760  
       0.419165614         0.880418418         0.221728655  
       0.879394455        -0.454432993         0.141971996  

Isotropic polarizability : 139.40092


Polarizability tensor calculation done in   0.0 sec 

Maximum memory used throughout the entire PROP-calculation: 59.7 MB

--------------------------------
SUGGESTED CITATIONS FOR THIS RUN
--------------------------------

Below you find a list of papers that are relevant to this ORCA run
We neither can nor want to force you to cite these papers, but we appreciate if you do
You receive ORCA, which is the product of decades of hard work by many enthusiastic individuals, for free
The only thing we kindly ask in return is that you cite our papers,
We deeply appreciate it, if you show your appreciation for ORCA by not just citing the generic ORCA reference.

Please note that relegating all ORCA citations to the supporting information does *not* help us.
SI sections are not indexed - citations you put there will not count into any citation statistics
But we need these citations in order to attract the funding resources that allow us to do what we are doing

Therefore, if you are a happy ORCA user, please consider citing a few of the papers listed below in the main body of your paper

In addition to the list printed below, the program has created the file /kaggle/working/Phe-COOH-2/Phe-COOH_InterFrag.bibtex that contains the list in bibtex format
You can import this file easily into all common literature databanks and citation aid programs

It goes without saying that in many instances, there are alternative algorithms to achieve similar
results as the ones you have gotten from ORCA. It is, of course, also the case that in some instances
ORCA just re-implements algorithms worked out by others. We are fully aware of that and we are also
fully appreciative of our colleagues work. Hence this citation list should not be read as indicating
that the listed papers, which are focused on our own work, are the only ones worth citing. It simply
meant to make it easier for users to cite ORCA specific papers. It is not a substitute for doing your
own literature research and citing the relevant literature in a scientifically appropriate manner.

List of essential papers. We consider these as the minimum necessary citations

  1. Neese, F.
     Software update: the ORCA program system, version 6.0
     WIRES Comput. Molec. Sci. 2025 15(1), e70019
     doi.org/10.1002/wcms.70019

List of papers to cite with high priority. The work reported in these papers was absolutely
necessary for this run to complete.
Our perspective: the developers of density functionals and basis sets usually get cited in chemistry papers
Good! But without the algorithms to do something with them, the functionals or basis sets would not do anything.
Hence, in our opinion, the algorithm design and method developments papers are equally worthy of getting cited

  1. Neese, F.
     An improvement of the resolution of the identity approximation for the formation of the Coulomb matrix
     J. Comp. Chem. 2003 24(14), 1740-1747
     doi.org/10.1002/jcc.10318
  2. Neese, F.; Wennmohs, F.; Hansen, A.; Becker, U.
     Efficient, approximate and parallel Hartree-Fock and hybrid DFT calculations. A 'chain-of-spheres' algorithm for the Hartree-Fock exchange
     Chem. Phys. 2009 356(1-3), 98-109
     doi.org/10.1016/j.chemphys.2008.10.036
  3. Grimme, S.; Antony, J.; Ehrlich, S.; Krieg, H.
     A consistent and accurate ab initio parametrization of density functional dispersion correction (DFT-D) for the 94 elements H-Pu
     J. Chem. Phys. 2010 132 , 154104
     doi.org/10.1063/1.3382344
  4. Grimme, S.; Ehrlich, S.; Goerigk, L.
     Effect of the damping function in dispersion corrected density functional theory
     J. Comput. Chem. 2011 32(7), 1456-1465
     doi.org/10.1002/jcc.21759
  5. Helmich-Paris, B.; de Souza, B.; Neese, F.; Izsák, R.
     An improved chain of spheres for exchange algorithm
     J. Chem. Phys. 2021 155(10), 104109
     doi.org/10.1063/5.0058766
  6. Neese, F.
     The SHARK Integral Generation and Digestion System
     J. Comp. Chem. 2022 44(3), 381
     doi.org/10.1002/jcc.26942

List of suggested additional citations. These are papers that are important in the 'surrounding' of 
of this run, or papers that preceded the highly important papers. If you like your results we are grateful for a citation.

  1. Izsak, R.; Neese, F.
     An overlap fitted chain of spheres exchange method
     J. Chem. Phys. 2011 135 , 144105
     doi.org/10.1063/1.3646921
  2. Izsak, R.; Hansen, A.; Neese, F.
     The resolution of identity and chain of spheres approximations for the LPNO-CCSD singles Fock term
     Molec. Phys. 2012 110 , 2413-2417
     doi.org/10.1080/00268976.2012.687466
  3. Neese, F.
     The ORCA program system
     WIRES Comput. Molec. Sci. 2012 2(1), 73-78
     doi.org/10.1002/wcms.81
  4. Izsak, R.; Neese, F.; Klopper, W.
     Robust fitting techniques in the chain of spheres approximation to the Fock exchange: The role of the complementary space
     J. Chem. Phys. 2013 139 , 
     doi.org/10.1063/1.4819264
  5. Neese, F.
     Software update: the ORCA program system, version 4.0
     WIRES Comput. Molec. Sci. 2018 8(1), 1-6
     doi.org/10.1002/wcms.1327
  6. Neese, F.; Wennmohs, F.; Becker, U.; Riplinger, C.
     The ORCA quantum chemistry program package
     J. Chem. Phys. 2020 152(22), 224108
     doi.org/10.1063/5.0004608
  7. Neese, F.
     Software update: The ORCA program system—Version 5.0
     WIRES Comput. Molec. Sci. 2022 12(1), e1606
     doi.org/10.1002/wcms.1606

List of optional additional citations

  1. Neese, F.
     Approximate second-order SCF convergence for spin unrestricted wavefunctions
     Chem. Phys. Lett. 2000 325(1-3), 93-98
     doi.org/10.1016/s0009-2614(00)00662-x

Timings for individual modules:

Sum of individual times          ...      402.662 sec (=   6.711 min)
Startup calculation              ...        4.675 sec (=   0.078 min)   1.2 %
SCF iterations                   ...      263.985 sec (=   4.400 min)  65.6 %
SCF Response                     ...      133.463 sec (=   2.224 min)  33.1 %
Property calculations            ...        0.540 sec (=   0.009 min)   0.1 %
                             ****ORCA TERMINATED NORMALLY****
TOTAL RUN TIME: 0 days 0 hours 6 minutes 43 seconds 156 msec
