
                                 *****************
                                 * O   R   C   A *
                                 *****************

                                            #,                                       
                                            ###                                      
                                            ####                                     
                                            #####                                    
                                            ######                                   
                                           ########,                                 
                                     ,,################,,,,,                         
                               ,,#################################,,                 
                          ,,##########################################,,             
                       ,#########################################, ''#####,          
                    ,#############################################,,   '####,        
                  ,##################################################,,,,####,       
                ,###########''''           ''''###############################       
              ,#####''   ,,,,##########,,,,          '''####'''          '####       
            ,##' ,,,,###########################,,,                        '##       
           ' ,,###''''                  '''############,,,                           
         ,,##''                                '''############,,,,        ,,,,,,###''
      ,#''                                            '''#######################'''  
     '                                                          ''''####''''         
             ,#######,   #######,   ,#######,      ##                                
            ,#'     '#,  ##    ##  ,#'     '#,    #''#        ,####,    ,#,          
            ##       ##  ##   ,#'  ##            #'  '#       #'       ,# #          
            ##       ##  #######   ##           ,######,      #####,      #          
            '#,     ,#'  ##    ##  '#,     ,#' ,#      #,     #,   #      #          
             '#######'   ##     ##  '#######'  #'      '#     '####' #    #          



                #########################################################
                #                        -***-                          #
                #          Department of theory and spectroscopy        #
                #                                                       #
                #                      Frank Neese                      #
                #                                                       #
                #     Directorship, Architecture, Infrastructure        #
                #                    SHARK, DRIVERS                     #
                #        Core code/Algorithms in most modules           #
                #                                                       #
                #        Max Planck Institute fuer Kohlenforschung      #
                #                Kaiser Wilhelm Platz 1                 #
                #                 D-45470 Muelheim/Ruhr                 #
                #                      Germany                          #
                #                                                       #
                #                  All rights reserved                  #
                #                        -***-                          #
                #########################################################


                         Program Version 6.1.1  -  RELEASE   -
                                (GIT: $487d211c$)
                          ($2025-11-21 10:33:24 +0100$)
                                                                         
                                  - NO-DMRG VERSION -                    
                                                                         


 With contributions from (in alphabetic order):
[Max-Planck-Institut fuer Kohlenforschung]                               
  Daniel Aravena         : Magnetic Suceptibility                        
  Michael Atanasov       : Ab Initio Ligand Field Theory (pilot matlab implementation)
  Alexander A. Auer      : GIAO ZORA, VPT2 properties, NMR spectrum      
  Ute Becker             : All parallelization in ORCA, NUMFREQ, NUMCALC 
  Giovanni Bistoni       : ED, misc. LED, open-shell LED, HFLD           
  Dmytro Bykov           : pre 5.0 version of the SCF Hessian            
  Marcos Casanova-Páez   : Triplet and SCS-CIS(D). UHF-(DLPNO)-IP/EA/STEOM-CCSD. UHF-CVS-IP/STEOM-CCSD   
  Vijay G. Chilkuri      : MRCI spin determinant printing, contributions to CSF-ICE 
  Pauline Colinet        : FMM embedding                                 
  Dipayan Datta          : RHF DLPNO-CCSD density                        
  Achintya Kumar Dutta   : EOM-CC, STEOM-CC                              
  Nicolas Foglia         : Exact transition moments, OPA infrastructure, MCD improvements    
  Dmitry Ganyushin       : Spin-Orbit,Spin-Spin,Magnetic field MRCI      
  Miquel Garcia-Rates    : C-PCM and meta-GGA Hessian, CCSD/C-PCM, Gaussian charge scheme 
  Tiago L. C. Gouveia    : GS-ROHF, GS-ROCIS                             
  Yang Guo               : DLPNO-NEVPT2, F12-NEVPT2, CIM, IAO-localization        
  Andreas Hansen         : Spin unrestricted coupled pair/coupled cluster methods 
  Ingolf Harden          : AUTO-CI MPn and infrastructure                
  Benjamin Helmich-Paris : MC-RPA, TRAH-(SCF,CASSCF), AVAS, COSX integrals, SCF dyn. polar., MC-PDFT, srDFT 
  Lee Huntington         : MR-EOM, pCC                                   
  Robert Izsak           : Overlap fitted RIJCOSX, COSX-SCS-MP3, EOM     
  Riya Kayal             : Wick's Theorem for AUTO-CI, AUTO-CI UHF-CCSDT 
  Emily Kempfer          : AUTO-CI RHF CISDT and CCSDT, approximate NEVPT4
  Christian Kollmar      : KDIIS, OOCD, Brueckner-CCSD(T), CCSD density, CASPT2, CASPT2-K, improved NEVPT2 
  Axel Koslowski         : Symmetry handling                             
  Simone Kossmann        : meta-GGA functionals, TD-DFT gradient, OOMP2, (MP2 Hessian; deprecated post 5.0) 
  Lucas Lang             : DCDCAS, Hyperfine gauge corrections, ICE-SOC+SSC
  Marvin Lechner         : AUTO-CI (C++ implementation), FIC-MRCC        
  Spencer Leger          : CASSCF response                               
  Dagmar Lenk            : GEPOL surface, SMD, ORCA-2-JSON               
  Dimitrios Liakos       : Extrapolation schemes; Compound Job, Property file
  Dimitrios Manganas     : Further ROCIS development; embedding schemes. LFT, Crystal Embedding 
  Dimitrios Pantazis     : SARC Basis sets                               
  Anastasios Papadopoulos: AUTO-CI, single reference methods and gradients 
  Taras Petrenko         : pre 6.0 DFT Hessian and TD-DFT gradient,  ECA, NRVS 
  Petra Pikulova         : Analytic Raman intensities                    
  Peter Pinski           : DLPNO-MP2, DLPNO-MP2 Gradient                 
  Shashank Vittal Rao    : ES-AILFT, MagRelax                            
  Christoph Reimann      : Effective Core Potentials                     
  Marius Retegan         : Local ZFS, SOC                                
  Christoph Riplinger    : Optimizer, TS searches, QM/MM, DLPNO-CCSD(T), (RO)-DLPNO pert. Triples 
  Michael Roemelt        : Original ROCIS implementation, recursive CI coupling coefficients
  Masaaki Saitow         : Open-shell DLPNO-CCSD energy and density      
  Barbara Sandhoefer     : DKH picture change effects                    
  Yorick L. A. Schmerwitz: GMF and freeze-and-release deltaSCF, NEB S-IDPP initial path                    
  Kantharuban Sivalingam : CASSCF convergence/infrastructure, NEVPT2, NEVPT3, NEVPT4(SD), FIC-MRCI and CEPA variants
  Bernardo de Souza      : ESD, SOC TD-DFT                               
  Georgi L. Stoychev     : AutoAux, RI-MP2 NMR, DLPNO-MP2 response, X2C  
  Van Anh Tran           : RI-MP2 g-tensors                              
  Willem Van den Heuvel  : Paramagnetic NMR                              
  Zikuan Wang            : NOTCH, Electric field optimization            
  Frank Wennmohs         : Technical directorship and infrastructure     
  Hang Xu                : AUTO-CI-Response properties                   
                                                                         
[FACCTs GmbH]                                                            
  Markus Bursch, Nicolas Foglia, Miquel Garcia-Rates, Ingolf Harden, Hagen Neugebauer, Anastasios Papadopoulos, 
  Christoph Riplinger, Bernardo de Souza, Georgi L. Stoychev                                                    
                                                                 
  APM, various basis sets, CI-OPT, improved COSX, DLPNO-Multilevel,           
  DOCKER, DRACO, updates on ESD, Fragmentator, GOAT, IRC, LR-CPCM, L-BFGS, MBIS, meta-GGA TD-DFT gradient, ML-optimized integration grids, 
  MM, NACMEs, nearIR, NEB, NEB-TS, NL-DFT gradient (VV10), 2- and 3-layer-ONIOM, interface openCOSMO-RS, QMMM,   
  Crystal-QMMM, RESP, rigid body optimization, SF, symmetry and pop. for TD-DFT, various functionals, SOLVATOR                                   
                                                                         
[Other institutions]                                                     
  V. Asgeirsson          : NEB                                           
  Christoph Bannwarth    : sTDA-DFT, sTD-DFT, PBEh-3c, B97-3c, D3        
  Giovanni Bistoni       : ETS/NOCV, ADLD/ADEX, COVALED                  
  Martin Brehm           : Molecular dynamics                            
  Ronald Cardenas        : ETS/NOCV                                      
  Martina Colucci        : COVALED                                       
  Sebastian Ehlert       : rSCAN, r2SCAN, r2SCAN-3c, D4, dhf basis sets  
  Marvin Friede          : D4 for Fr, Ra, Ac-Lr                          
  Lars Goerigk           : TD-DFT with DH, B97 family of functionals     
  Stefan Grimme          : VdW corrections, initial TS optimization, DFT functionals, gCP, sTDA/sTD-DF 
  Waldemar Hujo          : DFT-NL                                        
  H. Jonsson             : NEB                                           
  Holger Kruse           : gCP                                           
  Marcel Mueller         : wB97X-3c, vDZP basis set                      
  Hagen Neugebauer       : wr2SCAN, Native XTB                           
  Gianluca Regni         : ADLD/ADEX                                     
  Tobias Risthaus        : pre 6.0 range-separated hybrid DFT and stability analysis
  Lukas Wittmann         : regularized MP2, r2SCAN double-hybrids, wr2SCAN        
                                                                         
We gratefully acknowledge several colleagues who have allowed us to      
interface, adapt or use parts of their codes:                            
  Ed Valeev, F. Pavosevic, A. Kumar             : LibInt (2-el integral package), F12 methods 
  Garnet Chan, S. Sharma, J. Yang, R. Olivares  : DMRG                   
  Ulf Ekstrom                                   : XCFun DFT Library      
  Mihaly Kallay                                 : mrcc  (arbitrary order and MRCC methods)
  Frank Weinhold                                : gennbo (NPA and NBO analysis)           
  Simon Mueller                                 : openCOSMO-RS                            
  Christopher J. Cramer and Donald G. Truhlar   : smd solvation model                     
  S Lehtola, MJT Oliveira, MAL Marques          : LibXC Library                           
  Liviu Ungur et al                             : ANISO software                          


 Your calculation uses the libint2 library for the computation of 2-el integrals
 For citations please refer to: http://libint.valeyev.net

 Your ORCA version has been built with support for libXC version: 7.0.0
 For citations please refer to: https://libxc.gitlab.io

 This ORCA versions uses:
   CBLAS   interface :  Fast vector & matrix operations
   LAPACKE interface :  Fast linear algebra routines
   SCALAPACK package :  Parallel linear algebra routines
   Shared memory     :  Shared parallel matrices
   BLAS/LAPACK       :  OpenBLAS 0.3.29  USE64BITINT DYNAMIC_ARCH NO_AFFINITY SkylakeX SINGLE_THREADED
        Core in use  :  SkylakeX
   Copyright (c) 2011-2014, The OpenBLAS Project


  ***********************************
  * Starting time: Tue Mar 24 18:16:12 2026
  * Host name:     0a7b236d4d01
  * Process ID:    54
  * Working dir.:  /kaggle/working
  ***********************************

NOTE: MaxCore=3000 MB was set to SCF,MP2,MDCI,CIPSI,MRCI,RASCI and CIS
      => If you want to overwrite this, your respective input block should be placed after the MaxCore statement
Your calculation utilizes the atom-pairwise dispersion correction
with the Becke-Johnson damping scheme (D3BJ)


Your calculation utilizes the SMD solvation module
Please cite in your paper:
Marenich, A. V.; Cramer, C. J.; Truhlar, D. G. J. Phys. Chem. B 2009, 113, 6378 

Warning: RI is on but no J-basis has been assigned. Assigning Def2/J (nothing to worry about!)
================================================================================

----- Orbital basis set information -----
Your calculation utilizes the basis: 6-31G(d,p)
   H-He, Li-Ne : W. J. Hehre, R. Ditchfield and J.A. Pople, J. Chem. Phys. 56, 2257 (1972).
                 Note: He and Ne are unpublished basis sets taken from the Gaussian program.
                 Note: Li and B from J. D. Dill and J. A. Pople, J. Chem. Phys. 62, 2921 (1975).
   Na - Ar     : M. M. Francl, W. J. Pietro, W. J. Hehre, J. S. Binkley, M. S. Gordon, 
                 D. J. DeFrees and J. A. Pople, J. Chem. Phys. 77, 3654 (1982).
   K - Zn      : V. A. Rassolov, J. A. Pople, M. A. Ratner, and T. L. Windus, J. Chem. Phys. 109, 1223 (1998).

----- AuxJ basis set information -----
Your calculation utilizes the auxiliary basis: def2/J
   H-Rn: F. Weigend, Phys. Chem. Chem. Phys. 8, 1057 (2006).
   Fr-Lr: K. Eichkorn, F. Weigend, O. Treutler, R. Ahlrichs; Theor. Chem. Acc. 97, 119 (1997).

================================================================================
                                        WARNINGS
                       Please study these warnings very carefully!
================================================================================


WARNING: Geometry Optimization
  ===> : Switching off AutoStart
         For restart on a previous wavefunction, please use MOREAD

================================================================================
                                       INPUT FILE
================================================================================
NAME = /kaggle/working/Phe-NH2-1/Phe-NH2_InterFrag.inp
|  1> 
|  2> !RKS B3LYP 6-31G(d,p) TightSCF Opt D3BJ
|  3>  
|  4> %pal nprocs 2 end
|  5> %maxcore 3000
|  6> 
|  7> %cpcm
|  8>   smd true
|  9>   SMDsolvent "WATER"
| 10>   end
| 11> 
| 12> %scf
| 13>   MaxIter 1000
| 14>   SOSCF Start 0.00033
| 15>   end
| 16> end
| 17> 
| 18> %output
| 19>   PrintLevel Normal
| 20>   Print[ P_OrbEn ] 2        # print ALL orbital energies (not just up to LUMO+9) :contentReference[oaicite:10]{index=10}
| 21>   XYZFile true              # writes basename.xyz (handy for reuse) :contentReference[oaicite:11]{index=11}
| 22>   end
| 23> 
| 24> *xyz 0 1
| 25> O        1.492000000      1.457800000     -1.224500000
| 26> O        3.004600000      1.470800000      0.464600000
| 27> N        3.474000000     -1.207100000     -0.021800000
| 28> N       -4.165000000      0.678300000     -0.310700000
| 29> C        1.125100000     -1.174600000      0.677200000
| 30> C        2.151500000     -0.666000000     -0.345700000
| 31> C       -0.272200000     -0.685300000      0.416300000
| 32> C       -0.699400000      0.505500000      0.989300000
| 33> C       -1.119200000     -1.429900000     -0.394400000
| 34> C        2.274500000      0.847700000     -0.296100000
| 35> C       -1.996000000      0.959600000      0.747400000
| 36> C       -2.415700000     -0.975800000     -0.636200000
| 37> C       -2.854100000      0.218800000     -0.065400000
| 38> H        1.122100000     -2.273300000      0.689100000
| 39> H        1.419900000     -0.874900000      1.693200000
| 40> H        1.885600000     -0.973600000     -1.363700000
| 41> H       -0.042500000      1.089800000      1.627600000
| 42> H       -0.786800000     -2.360600000     -0.845800000
| 43> H       -2.326100000      1.891800000      1.198600000
| 44> H       -3.074700000     -1.561700000     -1.272000000
| 45> H        4.139900000     -0.936000000     -0.744700000
| 46> H        3.438700000     -2.225800000     -0.037700000
| 47> H       -4.787900000      0.141100000     -0.899100000
| 48> H       -4.483800000      1.543900000      0.103900000
| 49> H        1.582200000      2.434100000     -1.193700000
| 50> *
| 51> 
| 52>                          ****END OF INPUT****
================================================================================

                       *****************************
                       * Geometry Optimization Run *
                       *****************************

Geometry optimization settings:
Update method            Update   .... BFGS
Choice of coordinates    CoordSys .... (2022) Redundant Internals
Initial Hessian          InHess   .... Almloef's Model
Max. no of cycles        MaxIter  .... 75

Convergence Tolerances:
Energy Change            TolE     ....  5.0000e-06 Eh
Max. Gradient            TolMAXG  ....  3.0000e-04 Eh/bohr
RMS Gradient             TolRMSG  ....  1.0000e-04 Eh/bohr
Max. Displacement        TolMAXD  ....  4.0000e-03 bohr
RMS Displacement         TolRMSD  ....  2.0000e-03 bohr
Strict Convergence                .... False

------------------------------------------------------------------------------
                        ORCA OPTIMIZATION COORDINATE SETUP
------------------------------------------------------------------------------

The optimization will be done in redundant internal coordinates (2022)
Making redundant internal coordinates   ...  (2022 redundants) done
Evaluating the initial hessian          ...  (Almloef) done
Evaluating the coordinates              ...  done
Calculating the B-matrix                .... done
Calculating the G-matrix                .... done
The number of degrees of freedom        ....  116

    -----------------------------------------------------------------
                    Redundant Internal Coordinates


    -----------------------------------------------------------------
         Definition                    Initial Value    Approx d2E/dq
    -----------------------------------------------------------------
      1. B(C   5,C   4)                  1.5357         0.365781   
      2. B(C   5,N   2)                  1.4652         0.424576   
      3. B(C   6,C   4)                  1.5033         0.412064   
      4. B(C   7,C   6)                  1.3888         0.627500   
      5. B(C   8,C   6)                  1.3889         0.627302   
      6. B(C   9,O   1)                  1.2247         1.026958   
      7. B(C   9,O   0)                  1.3588         0.627457   
      8. B(C   9,C   5)                  1.5195         0.388268   
      9. B(C  10,C   7)                  1.3950         0.613531   
     10. B(C  11,C   8)                  1.3948         0.613779   
     11. B(C  12,C  11)                  1.3947         0.614192   
     12. B(C  12,C  10)                  1.3949         0.613636   
     13. B(C  12,N   3)                  1.4106         0.518826   
     14. B(H  13,C   4)                  1.0988         0.348685   
     15. B(H  14,C   4)                  1.0995         0.347701   
     16. B(H  15,C   5)                  1.0962         0.351997   
     17. B(H  16,C   7)                  1.0864         0.364841   
     18. B(H  17,C   8)                  1.0865         0.364777   
     19. B(H  18,C  10)                  1.0870         0.364106   
     20. B(H  19,C  11)                  1.0871         0.363948   
     21. B(H  20,N   2)                  1.0196         0.417775   
     22. B(H  21,N   2)                  1.0194         0.417966   
     23. B(H  22,N   3)                  1.0113         0.430588   
     24. B(H  23,N   3)                  1.0113         0.430598   
     25. B(H  24,O   0)                  0.9809         0.481455   
     26. A(C   9,O   0,H  24)          111.8672         0.366012   
     27. A(C   5,N   2,H  21)          109.5324         0.334587   
     28. A(H  20,N   2,H  21)          106.0970         0.299900   
     29. A(C   5,N   2,H  20)          109.5474         0.334561   
     30. A(H  22,N   3,H  23)          119.9335         0.302782   
     31. A(C  12,N   3,H  23)          120.0310         0.347725   
     32. A(C  12,N   3,H  22)          120.0352         0.347723   
     33. A(C   5,C   4,C   6)          113.4424         0.368173   
     34. A(C   6,C   4,H  14)          108.7147         0.327700   
     35. A(H  13,C   4,H  14)          105.2646         0.287790   
     36. A(C   5,C   4,H  14)          110.2428         0.321349   
     37. A(C   6,C   4,H  13)          108.9537         0.327852   
     38. A(C   5,C   4,H  13)          109.8887         0.321497   
     39. A(N   2,C   5,C   9)          106.7154         0.371547   
     40. A(C   4,C   5,H  15)          111.3155         0.321995   
     41. A(C   9,C   5,H  15)          109.2375         0.325163   
     42. A(N   2,C   5,H  15)          108.7001         0.328007   
     43. A(C   4,C   5,C   9)          111.2397         0.364440   
     44. A(N   2,C   5,C   4)          109.4944         0.367757   
     45. A(C   4,C   6,C   7)          119.5629         0.404447   
     46. A(C   7,C   6,C   8)          120.8573         0.435925   
     47. A(C   4,C   6,C   8)          119.5799         0.404424   
     48. A(C  10,C   7,H  16)          119.2625         0.353064   
     49. A(C   6,C   7,H  16)          121.1674         0.354413   
     50. A(C   6,C   7,C  10)          119.5696         0.434186   
     51. A(C  11,C   8,H  17)          119.4210         0.353077   
     52. A(C   6,C   8,H  17)          121.0087         0.354383   
     53. A(C   6,C   8,C  11)          119.5701         0.434193   
     54. A(O   0,C   9,O   1)          122.6308         0.470509   
     55. A(O   1,C   9,C   5)          125.1244         0.434074   
     56. A(O   0,C   9,C   5)          112.2318         0.397662   
     57. A(C  12,C  10,H  18)          120.6974         0.352953   
     58. A(C   7,C  10,H  18)          119.3054         0.352943   
     59. A(C   7,C  10,C  12)          119.9972         0.432445   
     60. A(C   8,C  11,C  12)          120.0057         0.432547   
     61. A(C  12,C  11,H  19)          120.6942         0.352982   
     62. A(C   8,C  11,H  19)          119.3000         0.352941   
     63. A(N   3,C  12,C  10)          120.0015         0.416935   
     64. A(C  10,C  12,C  11)          120.0002         0.432528   
     65. A(N   3,C  12,C  11)          119.9984         0.417002   
     66. D(C   9,C   5,N   2,H  21)    179.6754         0.015369   
     67. D(N   2,C   5,C   4,C   6)   -179.2360         0.010711   
     68. D(C   9,C   5,C   4,H  14)    -59.1270         0.010711   
     69. D(C   9,C   5,C   4,C   6)     63.0578         0.010711   
     70. D(N   2,C   5,C   4,H  13)    -57.0039         0.010711   
     71. D(C   4,C   5,N   2,H  20)    175.1590         0.015369   
     72. D(N   2,C   5,C   4,H  14)     58.5792         0.010711   
     73. D(C   9,C   5,N   2,H  20)    -64.3391         0.015369   
     74. D(C   4,C   5,N   2,H  21)     59.1735         0.015369   
     75. D(H  15,C   5,N   2,H  20)     53.3610         0.015369   
     76. D(C   9,C   5,C   4,H  13)   -174.7101         0.010711   
     77. D(C   7,C   6,C   4,H  14)     33.0190         0.012571   
     78. D(C   7,C   6,C   4,H  13)    147.2395         0.012571   
     79. D(C   8,C   6,C   4,C   5)     89.9972         0.012571   
     80. D(C   7,C   6,C   4,C   5)    -90.0108         0.012571   
     81. D(C   8,C   6,C   4,H  13)    -32.7525         0.012571   
     82. D(H  16,C   7,C   6,C   8)    179.7393         0.027287   
     83. D(H  16,C   7,C   6,C   4)     -0.2526         0.027287   
     84. D(C  10,C   7,C   6,C   8)     -0.0021         0.027287   
     85. D(C  10,C   7,C   6,C   4)   -179.9940         0.027287   
     86. D(H  17,C   8,C   6,C   7)    179.8544         0.027269   
     87. D(H  17,C   8,C   6,C   4)     -0.1537         0.027269   
     88. D(C  11,C   8,C   6,C   7)     -0.0001         0.027269   
     89. D(C  11,C   8,C   6,C   4)    179.9918         0.027269   
     90. D(O   1,C   9,C   5,N   2)    -33.5312         0.011221   
     91. D(O   0,C   9,C   5,H  15)     27.8352         0.011221   
     92. D(O   0,C   9,C   5,C   4)    -95.4423         0.011221   
     93. D(O   0,C   9,C   5,N   2)    145.1808         0.011221   
     94. D(C   5,C   9,O   0,H  24)   -179.4368         0.028936   
     95. D(O   1,C   9,C   5,C   4)     85.8457         0.011221   
     96. D(O   1,C   9,O   0,H  24)     -0.6878         0.028936   
     97. D(H  18,C  10,C   7,H  16)      0.2111         0.026015   
     98. D(H  18,C  10,C   7,C   6)    179.9575         0.026015   
     99. D(C  12,C  10,C   7,H  16)   -179.7433         0.026015   
    100. D(C  12,C  10,C   7,C   6)      0.0031         0.026015   
    101. D(H  19,C  11,C   8,H  17)      0.0984         0.026037   
    102. D(H  19,C  11,C   8,C   6)    179.9553         0.026037   
    103. D(C  12,C  11,C   8,H  17)   -179.8555         0.026037   
    104. D(C  12,C  11,C   8,C   6)      0.0014         0.026037   
    105. D(C  10,C  12,C  11,H  19)   -179.9537         0.026074   
    106. D(C  10,C  12,C  11,C   8)     -0.0005         0.026074   
    107. D(N   3,C  12,C  11,H  19)      0.0078         0.026074   
    108. D(N   3,C  12,C  11,C   8)    179.9610         0.026074   
    109. D(C  11,C  12,C  10,H  18)   -179.9555         0.026024   
    110. D(C  11,C  12,C  10,C   7)     -0.0018         0.026024   
    111. D(N   3,C  12,C  10,H  18)      0.0830         0.026024   
    112. D(N   3,C  12,C  10,C   7)   -179.9633         0.026024   
    113. D(C  11,C  12,N   3,H  23)    179.9232         0.021337   
    114. D(C  11,C  12,N   3,H  22)      0.1052         0.021337   
    115. D(C  10,C  12,N   3,H  23)     -0.1153         0.021337   
    116. D(C  10,C  12,N   3,H  22)   -179.9333         0.021337   
    -----------------------------------------------------------------

Number of atoms                         .... 25
Number of degrees of freedom            .... 116


         *************************************************************
         *                GEOMETRY OPTIMIZATION CYCLE   1            *
         *************************************************************
---------------------------------
CARTESIAN COORDINATES (ANGSTROEM)
---------------------------------
  O      1.492000    1.457800   -1.224500
  O      3.004600    1.470800    0.464600
  N      3.474000   -1.207100   -0.021800
  N     -4.165000    0.678300   -0.310700
  C      1.125100   -1.174600    0.677200
  C      2.151500   -0.666000   -0.345700
  C     -0.272200   -0.685300    0.416300
  C     -0.699400    0.505500    0.989300
  C     -1.119200   -1.429900   -0.394400
  C      2.274500    0.847700   -0.296100
  C     -1.996000    0.959600    0.747400
  C     -2.415700   -0.975800   -0.636200
  C     -2.854100    0.218800   -0.065400
  H      1.122100   -2.273300    0.689100
  H      1.419900   -0.874900    1.693200
  H      1.885600   -0.973600   -1.363700
  H     -0.042500    1.089800    1.627600
  H     -0.786800   -2.360600   -0.845800
  H     -2.326100    1.891800    1.198600
  H     -3.074700   -1.561700   -1.272000
  H      4.139900   -0.936000   -0.744700
  H      3.438700   -2.225800   -0.037700
  H     -4.787900    0.141100   -0.899100
  H     -4.483800    1.543900    0.103900
  H      1.582200    2.434100   -1.193700

----------------------------
CARTESIAN COORDINATES (A.U.)
----------------------------
  NO LB      ZA    FRAG     MASS         X           Y           Z
   0 O     8.0000    0    15.999    2.819471    2.754843   -2.313970
   1 O     8.0000    0    15.999    5.677871    2.779409    0.877967
   2 N     7.0000    0    14.007    6.564909   -2.281088   -0.041196
   3 N     7.0000    0    14.007   -7.870709    1.281801   -0.587138
   4 C     6.0000    0    12.011    2.126131   -2.219672    1.279723
   5 C     6.0000    0    12.011    4.065746   -1.258558   -0.653278
   6 C     6.0000    0    12.011   -0.514383   -1.295029    0.786693
   7 C     6.0000    0    12.011   -1.321674    0.955257    1.869506
   8 C     6.0000    0    12.011   -2.114981   -2.702119   -0.745308
   9 C     6.0000    0    12.011    4.298182    1.601921   -0.559548
  10 C     6.0000    0    12.011   -3.771893    1.813381    1.412381
  11 C     6.0000    0    12.011   -4.565011   -1.843995   -1.202244
  12 C     6.0000    0    12.011   -5.393467    0.413472   -0.123588
  13 H     1.0000    0     1.008    2.120462   -4.295914    1.302210
  14 H     1.0000    0     1.008    2.683222   -1.653321    3.199684
  15 H     1.0000    0     1.008    3.563268   -1.839837   -2.577020
  16 H     1.0000    0     1.008   -0.080313    2.059424    3.075718
  17 H     1.0000    0     1.008   -1.486837   -4.460888   -1.598330
  18 H     1.0000    0     1.008   -4.395692    3.574984    2.265026
  19 H     1.0000    0     1.008   -5.810341   -2.951185   -2.403732
  20 H     1.0000    0     1.008    7.823277   -1.768784   -1.407279
  21 H     1.0000    0     1.008    6.498201   -4.206152   -0.071243
  22 H     1.0000    0     1.008   -9.047820    0.266640   -1.699053
  23 H     1.0000    0     1.008   -8.473154    2.917548    0.196343
  24 H     1.0000    0     1.008    2.989925    4.599782   -2.255766

--------------------------------
INTERNAL COORDINATES (ANGSTROEM)
--------------------------------
 O      0   0   0     0.000000000000     0.00000000     0.00000000
 O      1   0   0     2.267418481445     0.00000000     0.00000000
 N      2   1   0     2.761896038956    88.66064860     0.00000000
 N      1   2   3     5.783104675691   122.38585360    95.15858429
 C      3   2   1     2.450915841068    76.94034871   296.33870609
 C      3   2   1     1.465164383269    61.79985024   331.70029063
 C      5   3   2     1.503306552237   147.73792849    61.02309753
 C      7   5   3     1.388824495752   119.56286387   269.18258882
 C      7   5   3     1.388910598275   119.57986307    89.19060634
 C      2   1   3     1.224730219273    30.31147859   342.48986371
 C      8   7   5     1.394953038636   119.56957354   180.00598866
 C      9   7   5     1.394842750994   119.57008767   179.99176276
 C     12   9   7     1.394659944216   120.00572609     0.00000000
 H      5   3   2     1.098768537955    89.56718124   187.64513680
 H      5   3   2     1.099537689213    90.58401910   292.90639903
 H      6   3   2     1.096195498075   108.70007342   130.84005971
 H      8   7   5     1.086439593351   121.16738602   359.74743029
 H      9   7   5     1.086487096104   121.00871421   359.84632285
 H     11   8   7     1.086988633795   119.30540421   179.95747070
 H     12   9   7     1.087106917465   119.30004313   179.95528185
 H      3   2   1     1.019559919769    88.74271946    84.74876774
 H      3   2   1     1.019435427087   164.96108150   273.95113206
 H      4   1   2     1.011337139632   125.60202987   218.74385409
 H      4   1   2     1.011330786637   104.93754015    73.03506880
 H      1   2   3     0.980941573184    84.81119347   196.86923969

---------------------------
INTERNAL COORDINATES (A.U.)
---------------------------
 O      0   0   0     0.000000000000     0.00000000     0.00000000
 O      1   0   0     4.284799960923     0.00000000     0.00000000
 N      2   1   0     5.219227123988    88.66064860     0.00000000
 N      1   2   3    10.928484040856   122.38585360    95.15858429
 C      3   2   1     4.631559716909    76.94034871   296.33870609
 C      3   2   1     2.768759425554    61.79985024   331.70029063
 C      5   3   2     2.840837679058   147.73792849    61.02309753
 C      7   5   3     2.624497945052   119.56286387   269.18258882
 C      7   5   3     2.624660655240   119.57986307    89.19060634
 C      2   1   3     2.314404702363    30.31147859   342.48986371
 C      8   7   5     2.636079212703   119.56957354   180.00598866
 C      9   7   5     2.635870799264   119.57008767   179.99176276
 C     12   9   7     2.635525344518   120.00572609     0.00000000
 H      5   3   2     2.076371621304    89.56718124   187.64513680
 H      5   3   2     2.077825106537    90.58401910   292.90639903
 H      6   3   2     2.071509280599   108.70007342   130.84005971
 H      8   7   5     2.053073292482   121.16738602   359.74743029
 H      9   7   5     2.053163059676   121.00871421   359.84632285
 H     11   8   7     2.054110828558   119.30540421   179.95747070
 H     12   9   7     2.054334352300   119.30004313   179.95528185
 H      3   2   1     1.926689025487    88.74271946    84.74876774
 H      3   2   1     1.926453768411   164.96108150   273.95113206
 H      4   1   2     1.911150222969   125.60202987   218.74385409
 H      4   1   2     1.911138217547   104.93754015    73.03506880
 H      1   2   3     1.853710926695    84.81119347   196.86923969

---------------------
BASIS SET INFORMATION
---------------------
There are 4 groups of distinct atoms

 Group   1 Type O   : 10s4p1d contracted to 3s2p1d pattern {631/31/1}
 Group   2 Type N   : 10s4p1d contracted to 3s2p1d pattern {631/31/1}
 Group   3 Type C   : 10s4p1d contracted to 3s2p1d pattern {631/31/1}
 Group   4 Type H   : 4s1p contracted to 2s1p pattern {31/1}

Atom   0O    basis set group =>   1
Atom   1O    basis set group =>   1
Atom   2N    basis set group =>   2
Atom   3N    basis set group =>   2
Atom   4C    basis set group =>   3
Atom   5C    basis set group =>   3
Atom   6C    basis set group =>   3
Atom   7C    basis set group =>   3
Atom   8C    basis set group =>   3
Atom   9C    basis set group =>   3
Atom  10C    basis set group =>   3
Atom  11C    basis set group =>   3
Atom  12C    basis set group =>   3
Atom  13H    basis set group =>   4
Atom  14H    basis set group =>   4
Atom  15H    basis set group =>   4
Atom  16H    basis set group =>   4
Atom  17H    basis set group =>   4
Atom  18H    basis set group =>   4
Atom  19H    basis set group =>   4
Atom  20H    basis set group =>   4
Atom  21H    basis set group =>   4
Atom  22H    basis set group =>   4
Atom  23H    basis set group =>   4
Atom  24H    basis set group =>   4
---------------------------------
AUXILIARY/J BASIS SET INFORMATION
---------------------------------
There are 4 groups of distinct atoms

 Group   1 Type O   : 12s5p4d2f1g contracted to 6s4p3d1f1g pattern {711111/2111/211/2/1}
 Group   2 Type N   : 12s5p4d2f1g contracted to 6s4p3d1f1g pattern {711111/2111/211/2/1}
 Group   3 Type C   : 12s5p4d2f1g contracted to 6s4p3d1f1g pattern {711111/2111/211/2/1}
 Group   4 Type H   : 5s2p1d contracted to 3s1p1d pattern {311/2/1}

Atom   0O    basis set group =>   1
Atom   1O    basis set group =>   1
Atom   2N    basis set group =>   2
Atom   3N    basis set group =>   2
Atom   4C    basis set group =>   3
Atom   5C    basis set group =>   3
Atom   6C    basis set group =>   3
Atom   7C    basis set group =>   3
Atom   8C    basis set group =>   3
Atom   9C    basis set group =>   3
Atom  10C    basis set group =>   3
Atom  11C    basis set group =>   3
Atom  12C    basis set group =>   3
Atom  13H    basis set group =>   4
Atom  14H    basis set group =>   4
Atom  15H    basis set group =>   4
Atom  16H    basis set group =>   4
Atom  17H    basis set group =>   4
Atom  18H    basis set group =>   4
Atom  19H    basis set group =>   4
Atom  20H    basis set group =>   4
Atom  21H    basis set group =>   4
Atom  22H    basis set group =>   4
Atom  23H    basis set group =>   4
Atom  24H    basis set group =>   4


           ************************************************************
           *        Program running with 2 parallel MPI-processes     *
           *              working on a common directory               *
           ************************************************************
------------------------------------------------------------------------------
                             ORCA STARTUP CALCULATIONS
                           -- RI-GTO INTEGRALS CHOSEN --
------------------------------------------------------------------------------
------------------------------------------------------------------------------
                   ___                                                        
                  /   \      - P O W E R E D   B Y -                         
                 /     \                                                     
                 |  |  |   _    _      __       _____    __    __             
                 |  |  |  | |  | |    /  \     |  _  \  |  |  /  |          
                  \  \/   | |  | |   /    \    | | | |  |  | /  /          
                 / \  \   | |__| |  /  /\  \   | |_| |  |  |/  /          
                |  |  |   |  __  | /  /__\  \  |    /   |      \           
                |  |  |   | |  | | |   __   |  |    \   |  |\   \          
                \     /   | |  | | |  |  |  |  | |\  \  |  | \   \       
                 \___/    |_|  |_| |__|  |__|  |_| \__\ |__|  \__/        
                                                                              
                      - O R C A' S   B I G   F R I E N D -                    
                                      &                                       
                       - I N T E G R A L  F E E D E R -                       
                                                                              
 v1 FN, 2020, v2 2021, v3 2022-2024                                           
------------------------------------------------------------------------------


----------------------
SHARK INTEGRAL PACKAGE
----------------------

Number of atoms                             ...     25
Number of basis functions                   ...    242
Number of shells                            ...    114
Maximum angular momentum                    ...      2
Integral batch strategy                     ... SHARK/LIBINT Hybrid
RI-J (if used) integral strategy            ... SPLIT-RIJ (Revised 2003 algorithm where possible)
Printlevel                                  ...      1
Contraction scheme used                     ... SEGMENTED contraction
Prescreening option                         ... SCHWARTZ
   Thresh                                   ... 2.500e-11
   Tcut                                     ... 2.500e-12
   Tpresel                                  ... 2.500e-12 
Coulomb Range Separation                    ... NOT USED
Exchange Range Separation                   ... NOT USED
Multipole approximations                    ... NOT USED
Finite Nucleus Model                        ... NOT USED
CABS basis                                  ... NOT available
Auxiliary Coulomb fitting basis             ... AVAILABLE
   # of basis functions in Aux-J            ...    769
   # of shells in Aux-J                     ...    255
   Maximum angular momentum in Aux-J        ...      4
Auxiliary J/K fitting basis                 ... NOT available
Auxiliary Correlation fitting basis         ... NOT available
Auxiliary 'external' fitting basis          ... NOT available

Checking pre-screening integrals            ... done (  0.0 sec) Dimension = 114
   => SHARK Basis and OBASIS are compatible. Storing Pre-screening
Shell pair information
Shell pair cut-off parameter TPreSel        ...   2.5e-12
Total number of shell pairs                 ...      6555
Shell pairs after pre-screening             ...      5407
Total number of primitive shell pairs       ...     32949
Primitive shell pairs kept                  ...     16908
          la=0 lb=0:   1663 shell pairs
          la=1 lb=0:   1977 shell pairs
          la=1 lb=1:    624 shell pairs
          la=2 lb=0:    665 shell pairs
          la=2 lb=1:    403 shell pairs
          la=2 lb=2:     75 shell pairs

Checking whether 4 symmetric matrices of dimension 242 fit in memory
:Max Core in MB      =   3000.00
 MB in use           =     10.73
 MB left             =   2989.27
 MB needed           =      0.90
 Data fit in memory  = YES
Calculating RI/J V-Matrix + Cholesky decomp.... done (  0.1 sec)
Calculating Nuclear repulsion               ... done (  0.0 sec) ENN=    781.555004004966 Eh

Diagonalization of the overlap matrix:
Smallest eigenvalue                        ... 4.221e-04
Time for diagonalization                   ...    0.008 sec
Threshold for overlap eigenvalues          ... 1.000e-07
Number of eigenvalues below threshold      ... 0
Time for construction of square roots      ...    0.003 sec
Total time needed                          ...    0.012 sec

-------------------
DFT GRID GENERATION
-------------------

General Integration Accuracy     IntAcc      ... 4.388
Radial Grid Type                 RadialGrid  ... OptM3 with GC (2021)
Angular Grid (max. ang.)         AngularGrid ... 4 (Lebedev-302)
Angular grid pruning method      GridPruning ... 4 (adaptive)
Weight generation scheme         WeightScheme... mBecke (2022)
Basis function cutoff            BFCut       ... 1.0000e-11
Integration weight cutoff        WCut        ... 1.0000e-14
Partially contracted basis set               ... off
Rotationally invariant grid construction     ... off
Angular grids for H and He will be reduced by one unit

Total number of grid points                  ...   116497
Total number of batches                      ...     1834
Average number of points per batch           ...       63
Average number of grid points per atom       ...     4660

--------------------
COSX GRID GENERATION
--------------------

GRIDX 1
-------
General Integration Accuracy     IntAcc      ... 3.816
Radial Grid Type                 RadialGrid  ... OptM3 with GC (2021)
Angular Grid (max. ang.)         AngularGrid ... 1 (Lebedev-50)
Angular grid pruning method      GridPruning ... 4 (adaptive)
Weight generation scheme         WeightScheme... mBecke (2022)
Basis function cutoff            BFCut       ... 1.0000e-11
Integration weight cutoff        WCut        ... 1.0000e-14
Partially contracted basis set               ... on
Rotationally invariant grid construction     ... off
Angular grids for H and He will be reduced by one unit

Total number of grid points                  ...    14774
Total number of batches                      ...      131
Average number of points per batch           ...      112
Average number of grid points per atom       ...      591
UseSFitting                                  ... on

GRIDX 2
-------
General Integration Accuracy     IntAcc      ... 4.020
Radial Grid Type                 RadialGrid  ... OptM3 with GC (2021)
Angular Grid (max. ang.)         AngularGrid ... 2 (Lebedev-110)
Angular grid pruning method      GridPruning ... 4 (adaptive)
Weight generation scheme         WeightScheme... mBecke (2022)
Basis function cutoff            BFCut       ... 1.0000e-11
Integration weight cutoff        WCut        ... 1.0000e-14
Partially contracted basis set               ... on
Rotationally invariant grid construction     ... off
Angular grids for H and He will be reduced by one unit

Total number of grid points                  ...    32055
Total number of batches                      ...      266
Average number of points per batch           ...      120
Average number of grid points per atom       ...     1282
UseSFitting                                  ... on

GRIDX 3
-------
General Integration Accuracy     IntAcc      ... 4.338
Radial Grid Type                 RadialGrid  ... OptM3 with GC (2021)
Angular Grid (max. ang.)         AngularGrid ... 3 (Lebedev-194)
Angular grid pruning method      GridPruning ... 4 (adaptive)
Weight generation scheme         WeightScheme... mBecke (2022)
Basis function cutoff            BFCut       ... 1.0000e-11
Integration weight cutoff        WCut        ... 1.0000e-14
Partially contracted basis set               ... on
Rotationally invariant grid construction     ... off
Angular grids for H and He will be reduced by one unit

Total number of grid points                  ...    70350
Total number of batches                      ...      563
Average number of points per batch           ...      124
Average number of grid points per atom       ...     2814
UseSFitting                                  ... on
Grids setup in   2.6 sec
Initializing property integral containers    ... done (  0.0 sec)

SHARK setup successfully completed in   3.0 seconds

Maximum memory used throughout the entire STARTUP-calculation: 39.9 MB


           ************************************************************
           *        Program running with 2 parallel MPI-processes     *
           *              working on a common directory               *
           ************************************************************
-------------------------------------------------------------------------------
                                 ORCA GUESS
                   Start orbitals & Density for SCF / CASSCF
-------------------------------------------------------------------------------

------------
SCF SETTINGS
------------
Hamiltonian:
 Density Functional     Method          .... DFT(GTOs)
 Exchange Functional    Exchange        .... B88
   X-Alpha parameter    XAlpha          ....  0.666667
   Becke's b parameter  XBeta           ....  0.004200
 Correlation Functional Correlation     .... LYP
 LDA part of GGA corr.  LDAOpt          .... VWN-5
 Gradients option       PostSCFGGA      .... off
 Hybrid DFT is turned on
   Fraction HF Exchange ScalHFX         ....  0.200000
   Scaling of DF-GGA-X  ScalDFX         ....  0.720000
   Scaling of DF-GGA-C  ScalDFC         ....  0.810000
   Scaling of DF-LDA-C  ScalLDAC        ....  1.000000
   Perturbative correction              ....  0.000000
   NL short-range parameter             ....  4.800000
 RI-approximation to the Coulomb term is turned on
   Number of AuxJ basis functions       .... 769
   RIJ-COSX (HFX calculated with COS-X)).... on


General Settings:
 Integral files         IntName         .... /kaggle/working/Phe-NH2-1/Phe-NH2_InterFrag
 Hartree-Fock type      HFTyp           .... RHF
 Total Charge           Charge          ....    0
 Multiplicity           Mult            ....    1
 Number of Electrons    NEL             ....   96
 Basis Dimension        Dim             ....  242
 Nuclear Repulsion      ENuc            ....    781.5550040050 Eh

Convergence Acceleration:
 AO-DIIS                CNVDIIS         .... on
   Start iteration      DIISMaxIt       ....    12
   Startup error        DIISStart       ....  0.200000
   # of expansion vecs  DIISMaxEq       ....     5
   Bias factor          DIISBfac        ....   1.050
   Max. coefficient     DIISMaxC        ....  10.000
 MO-DIIS                CNVKDIIS        .... off
 Trust-Rad. Augm. Hess. CNVTRAH         .... auto
   Auto Start mean grad. ratio tolernc. ....  1.125000
   Auto Start start iteration           ....    50
   Auto Start num. interpolation iter.  ....    10
   Max. Number of Micro iterations      ....    24
   Max. Number of Macro iterations      .... Maxiter - #DIIS iter
   Number of Davidson start vectors     ....     2
   Converg. threshold    (grad. norm)   ....   1.000e-05
   Grad. Scal. Fac. for Micro threshold ....   0.100
   Minimum threshold for Micro iter.    ....   1.000e-02
   NR start threshold (gradient norm)   ....   1.000e-04
   Initial trust radius                 ....   0.400
   Minimum AH scaling param. (alpha)    ....   1.000
   Maximum AH scaling param. (alpha)    .... 1000.000
   Quad. conv. algorithm                .... NR
   White noise on init. David. guess    .... on
   Maximum white noise                  ....   0.010
   Pseudo random numbers                .... off
   Inactive MOs                         .... canonical
   Orbital update algorithm             .... Taylor
   Preconditioner                       .... Diag
   Full preconditioner red. dimension   ....   250
 SOSCF                 CNVSOSCF           .... on
   Start iteration     SOSCFMaxIt         ....   150
   Startup grad/error  SOSCFStart         ....  0.000330
   Hessian update      SOSCFHessUp        .... L-BFGS
   Autom. constraints  SOSCFAutoConstrain .... off
 Level Shifting         CNVShift        .... on
   Level shift para.    LevelShift      ....    0.2500
   Turn off err/grad.   ShiftErr        ....    0.0010
 Zerner damping         CNVZerner       .... off
 Static damping         CNVDamp         .... on
   Fraction old density DampFac         ....    0.7000
   Max. Damping (<1)    DampMax         ....    0.9800
   Min. Damping (>=0)   DampMin         ....    0.0000
   Turn off err/grad.   DampErr         ....    0.1000

SCF Procedure:
 Maximum # iterations   MaxIter         ....  1000
 SCF integral mode      SCFMode         .... Direct
   Integral package                     .... SHARK and LIBINT hybrid scheme
 Reset frequency        DirectResetFreq ....    20
 Integral Threshold     Thresh          ....  2.500e-11 Eh
 Primitive CutOff       TCut            ....  2.500e-12 Eh

Convergence Tolerance:
 Convergence Check Mode ConvCheckMode   .... Total+1el-Energy
 Convergence forced     ConvForced      .... 0
 Energy Change          TolE            ....  1.000e-08 Eh
 1-El. energy change                    ....  1.000e-05 Eh
 Orbital Gradient       TolG            ....  1.000e-05
 Orbital Rotation angle TolX            ....  1.000e-05
 DIIS Error             TolErr          ....  5.000e-07

------------------------------
INITIAL GUESS: MODEL POTENTIAL
------------------------------
Loading Hartree-Fock densities                     ... done
Calculating cut-offs                               ... done
Initializing the effective Hamiltonian             ... done
Setting up the integral package (SHARK)            ... done
Starting the Coulomb interaction                   ... done (   0.3 sec)
Making the grid                                    ... done (   0.3 sec)
Mapping shells                                     ... done
Starting the XC term evaluation                    ... done (   0.2 sec)
  promolecular density results
     # of electrons  =     95.995497443
     EX              =    -79.401704700
     EC              =     -3.263964604
     EX+EC           =    -82.665669304
Transforming the Hamiltonian                       ... done (   0.0 sec)
Diagonalizing the Hamiltonian                      ... done (   0.0 sec)
Back transforming the eigenvectors                 ... done (   0.0 sec)
Now organizing SCF variables                       ... done
                      ------------------
                      INITIAL GUESS DONE (   0.9 sec)
                      ------------------
             **** ENERGY FILE WAS UPDATED (/kaggle/working/Phe-NH2-1/Phe-NH2_InterFrag.en.tmp) ****
Finished Guess after   1.2 sec
Maximum memory used throughout the entire GUESS-calculation: 15.5 MB


           ************************************************************
           *        Program running with 2 parallel MPI-processes     *
           *              working on a common directory               *
           ************************************************************

-------------------------------------------------------------------------------------------
                                      ORCA LEAN-SCF
                              memory conserving SCF solver
-------------------------------------------------------------------------------------------

--------------------
CPCM SOLVATION MODEL
--------------------
CPCM parameters:
  Epsilon                                         ...      78.3550
  Refrac                                          ...       1.3328
  Rsolv                                           ...       1.3000
  Surface type                                    ... GAUSSIAN VDW
  Discretization scheme                           ... Constant charge density
    Threshold for H atoms                         ...       5.0000 (charges/Ang^2)
    Threshold for non-H atoms                     ...       5.0000 (charges/Ang^2)
  Epsilon function type                           ...         CPCM
Solvent:                                          ... WATER
SMD-CDS solvent descriptors:
  Soln                                            ...       1.3328
  Soln25                                          ...       1.3323
  Sola                                            ...       0.0000
  Solb                                            ...       0.0000
  Solg                                            ...       0.0000
  Solc                                            ...       0.0000
  Solh                                            ...       0.0000
Radii:
  Scheme                                          ... Element-dependent radii
  Radius for O  used is    2.8724 Bohr (=   1.5200 Ang.)
  Radius for N  used is    3.5716 Bohr (=   1.8900 Ang.)
  Radius for C  used is    3.4960 Bohr (=   1.8500 Ang.)
  Radius for H  used is    2.2677 Bohr (=   1.2000 Ang.)
Calculating surface                               ...        done! (  0.0s)
Cavity surface points                             ...         1893
Cavity Volume                                     ...    1261.5598
Cavity Surface-area                               ...     767.3781
Calculating surface distance matrix               ...        done! (  0.1s)
Performing Cholesky decomposition & store         ...        done! (  0.1s)
Overall time for CPCM initialization              ...                 0.2s

----------------------------------------D-I-I-S--------------------------------------------
Iteration    Energy (Eh)           Delta-E    RMSDP     MaxDP     DIISErr   Damp  Time(sec)
-------------------------------------------------------------------------------------------
               ***  Starting incremental Fock matrix formation  ***
    1    -609.4068725129509403     0.00e+00  3.85e-03  8.86e-02  2.56e-01  0.700   8.0
    2    -609.6006436521590786    -1.94e-01  2.58e-03  5.50e-02  1.18e-01  0.700   3.8
                               ***Turning on AO-DIIS***
    3    -609.6769831605670333    -7.63e-02  1.03e-03  1.51e-02  3.84e-02  0.700   3.8
    4    -609.7228102671140277    -4.58e-02  1.62e-03  2.20e-02  1.85e-02  0.000   3.7
    5    -609.8227844114255731    -1.00e-01  3.69e-04  7.11e-03  6.21e-03  0.000   3.8
    6    -609.8234056948069792    -6.21e-04  1.21e-04  2.39e-03  2.39e-03  0.000   3.5
    7    -609.8234422669761443    -3.66e-05  4.45e-05  8.58e-04  3.86e-04  0.000   3.3
               *** Restarting incremental Fock matrix formation ***
                             ****Resetting DIIS****
    8    -609.8234307264597192     1.15e-05  3.41e-05  7.84e-04  4.55e-04  0.000   7.2
    9    -609.8234303724598249     3.54e-07  1.25e-05  5.18e-04  7.90e-04  0.000   4.6
                              *** Initializing SOSCF ***
---------------------------------------S-O-S-C-F--------------------------------------
Iteration    Energy (Eh)           Delta-E    RMSDP     MaxDP     MaxGrad    Time(sec)
--------------------------------------------------------------------------------------
   10    -609.8234315311815408    -1.16e-06  2.89e-06  7.78e-05  9.88e-05     3.9
               *** Restarting incremental Fock matrix formation ***
   11    -609.8234315483209684    -1.71e-08  2.99e-06  8.94e-05  2.03e-05     7.1
   12    -609.8234315323882129     1.59e-08  1.82e-06  5.89e-05  3.96e-05     3.4
   13    -609.8234315595225326    -2.71e-08  5.91e-07  1.53e-05  3.85e-06     3.1
   14    -609.8234315559275274     3.60e-09  3.52e-07  9.48e-06  4.29e-06     2.7
                 **** Energy Check signals convergence ****

               *****************************************************
               *                     SUCCESS                       *
               *           SCF CONVERGED AFTER  14 CYCLES          *
               *****************************************************

Recomputing exchange energy using gridx3       ... done (   11.304 sec)
Old exchange energy                            :    -16.147729927 Eh
New exchange energy                            :    -16.147738412 Eh
Exchange energy change after final integration :     -0.000008484 Eh
Total energy after final integration           :   -609.823440044 Eh

SMD CDS free energy correction energy :                 4.93881     Kcal/mol
Total Energy after SMD CDS correction =              -609.815569548 Eh
             **** ENERGY FILE WAS UPDATED (/kaggle/working/Phe-NH2-1/Phe-NH2_InterFrag.en.tmp) ****

----------------
TOTAL SCF ENERGY
----------------

Total Energy       :       -609.81556954799350 Eh          -16593.92527 eV

Components:
Nuclear Repulsion  :        781.55500400496589 Eh           21267.19286 eV
Electronic Energy  :      -1391.33735201934178 Eh          -37860.21412 eV
One Electron Energy:      -2381.33838682663236 Eh          -64799.51185 eV
Two Electron Energy:        990.00103480729058 Eh           26939.29772 eV
CPCM Dielectric    :         -0.04108354543230 Eh              -1.11794 eV
SMD CDS (Gcds)     :          0.00787049627059 Eh               0.21417 eV

Virial components:
Potential Energy   :      -1215.81698562058386 Eh          -33084.06214 eV
Kinetic Energy     :        606.00141607259036 Eh           16490.13687 eV
Virial Ratio       :          2.00629396792523

DFT components:
N(Alpha)           :       47.999980153075 electrons
N(Beta)            :       47.999980153075 electrons
N(Total)           :       95.999960306149 electrons
E(X)               :      -64.138774659709 Eh       
E(C)               :       -3.852807661710 Eh       
E(XC)              :      -67.991582321420 Eh       

CPCM Solvation Model Properties:
Surface-charge          :         -0.03397011074400
Corrected charge        :         -0.00000000000000
Outlying charge corr.   :          0.00007686703429 Eh               0.00209 eV
Free-energy (cav+disp)  :          0.00787049627059 Eh               0.21417 eV

---------------
SCF CONVERGENCE
---------------

  Last Energy change         ...   -3.5950e-09  Tolerance :   1.0000e-08
  Last MAX-Density change    ...    9.4755e-06  Tolerance :   1.0000e-07
  Last RMS-Density change    ...    3.5234e-07  Tolerance :   5.0000e-09
  Last DIIS Error            ...    9.8815e-05  Tolerance :   5.0000e-07
  Last Orbital Gradient      ...    4.2856e-06  Tolerance :   1.0000e-05
  Last Orbital Rotation      ...    4.4577e-06  Tolerance :   1.0000e-05


----------------
ORBITAL ENERGIES
----------------

  NO   OCC          E(Eh)            E(eV) 
   0   2.0000     -19.186278      -522.0852 
   1   2.0000     -19.138501      -520.7851 
   2   2.0000     -14.316324      -389.5670 
   3   2.0000     -14.301202      -389.1555 
   4   2.0000     -10.317186      -280.7449 
   5   2.0000     -10.214693      -277.9559 
   6   2.0000     -10.213864      -277.9334 
   7   2.0000     -10.174590      -276.8647 
   8   2.0000     -10.170630      -276.7569 
   9   2.0000     -10.170606      -276.7563 
  10   2.0000     -10.166380      -276.6413 
  11   2.0000     -10.165366      -276.6137 
  12   2.0000     -10.165336      -276.6129 
  13   2.0000      -1.092956       -29.7408 
  14   2.0000      -1.008257       -27.4361 
  15   2.0000      -0.892759       -24.2932 
  16   2.0000      -0.881540       -23.9879 
  17   2.0000      -0.830987       -22.6123 
  18   2.0000      -0.759314       -20.6620 
  19   2.0000      -0.733754       -19.9665 
  20   2.0000      -0.703323       -19.1384 
  21   2.0000      -0.655256       -17.8304 
  22   2.0000      -0.603546       -16.4233 
  23   2.0000      -0.585205       -15.9242 
  24   2.0000      -0.561167       -15.2701 
  25   2.0000      -0.508564       -13.8387 
  26   2.0000      -0.504181       -13.7195 
  27   2.0000      -0.493748       -13.4356 
  28   2.0000      -0.480481       -13.0746 
  29   2.0000      -0.465976       -12.6798 
  30   2.0000      -0.454566       -12.3694 
  31   2.0000      -0.432881       -11.7793 
  32   2.0000      -0.427693       -11.6381 
  33   2.0000      -0.420056       -11.4303 
  34   2.0000      -0.406300       -11.0560 
  35   2.0000      -0.401677       -10.9302 
  36   2.0000      -0.392672       -10.6851 
  37   2.0000      -0.378906       -10.3106 
  38   2.0000      -0.360266        -9.8033 
  39   2.0000      -0.355389        -9.6706 
  40   2.0000      -0.328770        -8.9463 
  41   2.0000      -0.327232        -8.9044 
  42   2.0000      -0.317067        -8.6278 
  43   2.0000      -0.287391        -7.8203 
  44   2.0000      -0.276461        -7.5229 
  45   2.0000      -0.242366        -6.5951 
  46   2.0000      -0.234638        -6.3848 
  47   2.0000      -0.184944        -5.0326 
  48   0.0000      -0.000539        -0.0147 
  49   0.0000       0.009686         0.2636 
  50   0.0000       0.029655         0.8070 
  51   0.0000       0.100467         2.7339 
  52   0.0000       0.104819         2.8523 
  53   0.0000       0.110633         3.0105 
  54   0.0000       0.117819         3.2060 
  55   0.0000       0.139726         3.8021 
  56   0.0000       0.147070         4.0020 
  57   0.0000       0.165864         4.5134 
  58   0.0000       0.174566         4.7502 
  59   0.0000       0.181127         4.9287 
  60   0.0000       0.190873         5.1939 
  61   0.0000       0.198314         5.3964 
  62   0.0000       0.207203         5.6383 
  63   0.0000       0.212947         5.7946 
  64   0.0000       0.227990         6.2039 
  65   0.0000       0.252709         6.8766 
  66   0.0000       0.258761         7.0412 
  67   0.0000       0.280103         7.6220 
  68   0.0000       0.303519         8.2592 
  69   0.0000       0.329134         8.9562 
  70   0.0000       0.344933         9.3861 
  71   0.0000       0.350821         9.5463 
  72   0.0000       0.361847         9.8464 
  73   0.0000       0.369629        10.0581 
  74   0.0000       0.379710        10.3324 
  75   0.0000       0.486818        13.2470 
  76   0.0000       0.508882        13.8474 
  77   0.0000       0.532048        14.4778 
  78   0.0000       0.543415        14.7871 
  79   0.0000       0.548389        14.9224 
  80   0.0000       0.554857        15.0984 
  81   0.0000       0.556168        15.1341 
  82   0.0000       0.585070        15.9206 
  83   0.0000       0.597195        16.2505 
  84   0.0000       0.606251        16.4969 
  85   0.0000       0.612510        16.6672 
  86   0.0000       0.618973        16.8431 
  87   0.0000       0.621893        16.9226 
  88   0.0000       0.644729        17.5440 
  89   0.0000       0.646482        17.5917 
  90   0.0000       0.650060        17.6890 
  91   0.0000       0.660798        17.9812 
  92   0.0000       0.669890        18.2286 
  93   0.0000       0.689093        18.7512 
  94   0.0000       0.701660        19.0931 
  95   0.0000       0.714918        19.4539 
  96   0.0000       0.728953        19.8358 
  97   0.0000       0.742233        20.1972 
  98   0.0000       0.763332        20.7713 
  99   0.0000       0.766898        20.8683 
 100   0.0000       0.797946        21.7132 
 101   0.0000       0.813707        22.1421 
 102   0.0000       0.823444        22.4070 
 103   0.0000       0.831294        22.6207 
 104   0.0000       0.836108        22.7516 
 105   0.0000       0.841402        22.8957 
 106   0.0000       0.859447        23.3867 
 107   0.0000       0.869934        23.6721 
 108   0.0000       0.873900        23.7800 
 109   0.0000       0.883051        24.0290 
 110   0.0000       0.887456        24.1489 
 111   0.0000       0.897979        24.4352 
 112   0.0000       0.911079        24.7917 
 113   0.0000       0.925425        25.1821 
 114   0.0000       0.930979        25.3332 
 115   0.0000       0.951872        25.9017 
 116   0.0000       0.977304        26.5938 
 117   0.0000       1.002382        27.2762 
 118   0.0000       1.009131        27.4598 
 119   0.0000       1.013917        27.5901 
 120   0.0000       1.039079        28.2748 
 121   0.0000       1.044338        28.4179 
 122   0.0000       1.050725        28.5917 
 123   0.0000       1.064610        28.9695 
 124   0.0000       1.093782        29.7633 
 125   0.0000       1.129171        30.7263 
 126   0.0000       1.144296        31.1379 
 127   0.0000       1.173333        31.9280 
 128   0.0000       1.185160        32.2498 
 129   0.0000       1.186478        32.2857 
 130   0.0000       1.225168        33.3385 
 131   0.0000       1.273250        34.6469 
 132   0.0000       1.309794        35.6413 
 133   0.0000       1.326949        36.1081 
 134   0.0000       1.369804        37.2743 
 135   0.0000       1.384193        37.6658 
 136   0.0000       1.396498        38.0007 
 137   0.0000       1.407908        38.3111 
 138   0.0000       1.414240        38.4834 
 139   0.0000       1.418306        38.5941 
 140   0.0000       1.439311        39.1656 
 141   0.0000       1.462925        39.8082 
 142   0.0000       1.480973        40.2993 
 143   0.0000       1.485957        40.4349 
 144   0.0000       1.496935        40.7337 
 145   0.0000       1.541335        41.9419 
 146   0.0000       1.590822        43.2885 
 147   0.0000       1.596421        43.4408 
 148   0.0000       1.609314        43.7916 
 149   0.0000       1.714369        46.6503 
 150   0.0000       1.736005        47.2391 
 151   0.0000       1.747629        47.5554 
 152   0.0000       1.761598        47.9355 
 153   0.0000       1.776906        48.3521 
 154   0.0000       1.784775        48.5662 
 155   0.0000       1.802679        49.0534 
 156   0.0000       1.824128        49.6371 
 157   0.0000       1.843882        50.1746 
 158   0.0000       1.863166        50.6993 
 159   0.0000       1.889496        51.4158 
 160   0.0000       1.897991        51.6470 
 161   0.0000       1.901366        51.7388 
 162   0.0000       1.917986        52.1910 
 163   0.0000       1.925396        52.3927 
 164   0.0000       1.931885        52.5693 
 165   0.0000       1.946114        52.9565 
 166   0.0000       1.965730        53.4902 
 167   0.0000       1.988043        54.0974 
 168   0.0000       1.988742        54.1164 
 169   0.0000       2.006849        54.6091 
 170   0.0000       2.010787        54.7163 
 171   0.0000       2.039420        55.4955 
 172   0.0000       2.055171        55.9240 
 173   0.0000       2.091758        56.9196 
 174   0.0000       2.117521        57.6207 
 175   0.0000       2.123380        57.7801 
 176   0.0000       2.155068        58.6424 
 177   0.0000       2.161689        58.8225 
 178   0.0000       2.191824        59.6426 
 179   0.0000       2.206814        60.0505 
 180   0.0000       2.223084        60.4932 
 181   0.0000       2.257460        61.4286 
 182   0.0000       2.277975        61.9868 
 183   0.0000       2.288145        62.2636 
 184   0.0000       2.293039        62.3968 
 185   0.0000       2.320733        63.1503 
 186   0.0000       2.325808        63.2884 
 187   0.0000       2.338260        63.6273 
 188   0.0000       2.366076        64.3842 
 189   0.0000       2.373987        64.5995 
 190   0.0000       2.377368        64.6915 
 191   0.0000       2.422342        65.9153 
 192   0.0000       2.428599        66.0855 
 193   0.0000       2.434230        66.2388 
 194   0.0000       2.456112        66.8342 
 195   0.0000       2.467017        67.1309 
 196   0.0000       2.473740        67.3139 
 197   0.0000       2.510944        68.3263 
 198   0.0000       2.523704        68.6735 
 199   0.0000       2.527101        68.7659 
 200   0.0000       2.554213        69.5037 
 201   0.0000       2.561056        69.6899 
 202   0.0000       2.588207        70.4287 
 203   0.0000       2.601846        70.7998 
 204   0.0000       2.613957        71.1294 
 205   0.0000       2.619800        71.2884 
 206   0.0000       2.654751        72.2395 
 207   0.0000       2.661323        72.4183 
 208   0.0000       2.685319        73.0712 
 209   0.0000       2.703525        73.5667 
 210   0.0000       2.729167        74.2644 
 211   0.0000       2.746272        74.7299 
 212   0.0000       2.765368        75.2495 
 213   0.0000       2.781141        75.6787 
 214   0.0000       2.787888        75.8623 
 215   0.0000       2.820713        76.7555 
 216   0.0000       2.827626        76.9436 
 217   0.0000       2.834616        77.1338 
 218   0.0000       2.846025        77.4443 
 219   0.0000       2.885204        78.5104 
 220   0.0000       2.898135        78.8623 
 221   0.0000       2.928669        79.6931 
 222   0.0000       2.988742        81.3278 
 223   0.0000       2.997844        81.5755 
 224   0.0000       3.019229        82.1574 
 225   0.0000       3.066478        83.4431 
 226   0.0000       3.087151        84.0057 
 227   0.0000       3.172924        86.3397 
 228   0.0000       3.217832        87.5617 
 229   0.0000       3.266442        88.8844 
 230   0.0000       3.290562        89.5407 
 231   0.0000       3.306455        89.9732 
 232   0.0000       3.338560        90.8468 
 233   0.0000       3.368067        91.6498 
 234   0.0000       3.417119        92.9845 
 235   0.0000       3.462464        94.2184 
 236   0.0000       3.471407        94.4618 
 237   0.0000       3.512658        95.5843 
 238   0.0000       3.519471        95.7697 
 239   0.0000       3.541898        96.3800 
 240   0.0000       3.644328        99.1672 
 241   0.0000       3.889510       105.8390 

                    ********************************
                    * MULLIKEN POPULATION ANALYSIS *
                    ********************************

-----------------------
MULLIKEN ATOMIC CHARGES
-----------------------
   0 O :   -0.506293
   1 O :   -0.512758
   2 N :   -0.638807
   3 N :   -0.675648
   4 C :   -0.244914
   5 C :    0.014419
   6 C :    0.072382
   7 C :   -0.143224
   8 C :   -0.144276
   9 C :    0.568072
  10 C :   -0.166298
  11 C :   -0.163995
  12 C :    0.266092
  13 H :    0.123698
  14 H :    0.115842
  15 H :    0.123775
  16 H :    0.108395
  17 H :    0.106329
  18 H :    0.104580
  19 H :    0.104330
  20 H :    0.264959
  21 H :    0.267141
  22 H :    0.292489
  23 H :    0.292276
  24 H :    0.371436
Sum of atomic charges:   -0.0000000

--------------------------------
MULLIKEN REDUCED ORBITAL CHARGES
--------------------------------
  0 O s       :     3.827172  s :     3.827172
      pz      :     1.632619  p :     4.658156
      px      :     1.676953
      py      :     1.348584
      dz2     :     0.005610  d :     0.020965
      dxz     :     0.005117
      dyz     :     0.002305
      dx2y2   :     0.005814
      dxy     :     0.002119

  1 O s       :     3.847643  s :     3.847643
      pz      :     1.484250  p :     4.639522
      px      :     1.463711
      py      :     1.691562
      dz2     :     0.006280  d :     0.025593
      dxz     :     0.005077
      dyz     :     0.004907
      dx2y2   :     0.004600
      dxy     :     0.004730

  2 N s       :     3.614725  s :     3.614725
      pz      :     1.633717  p :     3.995529
      px      :     1.141231
      py      :     1.220581
      dz2     :     0.005007  d :     0.028552
      dxz     :     0.008981
      dyz     :     0.001997
      dx2y2   :     0.009898
      dxy     :     0.002669

  3 N s       :     3.545663  s :     3.545663
      pz      :     1.578206  p :     4.109603
      px      :     1.196581
      py      :     1.334816
      dz2     :     0.001483  d :     0.020383
      dxz     :     0.004963
      dyz     :     0.002850
      dx2y2   :     0.004994
      dxy     :     0.006092

  4 C s       :     3.233728  s :     3.233728
      pz      :     0.987601  p :     2.973017
      px      :     0.942575
      py      :     1.042840
      dz2     :     0.009740  d :     0.038170
      dxz     :     0.008737
      dyz     :     0.003300
      dx2y2   :     0.010919
      dxy     :     0.005474

  5 C s       :     3.179611  s :     3.179611
      pz      :     1.006256  p :     2.749106
      px      :     0.846345
      py      :     0.896505
      dz2     :     0.013488  d :     0.056864
      dxz     :     0.013675
      dyz     :     0.004510
      dx2y2   :     0.015969
      dxy     :     0.009222

  6 C s       :     3.128167  s :     3.128167
      pz      :     0.955881  p :     2.758150
      px      :     0.894284
      py      :     0.907986
      dz2     :     0.006347  d :     0.041301
      dxz     :     0.007468
      dyz     :     0.006122
      dx2y2   :     0.010775
      dxy     :     0.010589

  7 C s       :     3.195495  s :     3.195495
      pz      :     0.992689  p :     2.911568
      px      :     0.961032
      py      :     0.957847
      dz2     :     0.003468  d :     0.036161
      dxz     :     0.007575
      dyz     :     0.006169
      dx2y2   :     0.009290
      dxy     :     0.009659

  8 C s       :     3.196934  s :     3.196934
      pz      :     0.971948  p :     2.911194
      px      :     0.951481
      py      :     0.987766
      dz2     :     0.005036  d :     0.036148
      dxz     :     0.007432
      dyz     :     0.005132
      dx2y2   :     0.009211
      dxy     :     0.009337

  9 C s       :     2.998536  s :     2.998536
      pz      :     0.710341  p :     2.314152
      px      :     0.715635
      py      :     0.888176
      dz2     :     0.027029  d :     0.119240
      dxz     :     0.021678
      dyz     :     0.024361
      dx2y2   :     0.025043
      dxy     :     0.021128

 10 C s       :     3.175736  s :     3.175736
      pz      :     1.016832  p :     2.957286
      px      :     0.959082
      py      :     0.981372
      dz2     :     0.004299  d :     0.033275
      dxz     :     0.006972
      dyz     :     0.004755
      dx2y2   :     0.008076
      dxy     :     0.009173

 11 C s       :     3.175191  s :     3.175191
      pz      :     1.026411  p :     2.955529
      px      :     0.970032
      py      :     0.959086
      dz2     :     0.003249  d :     0.033275
      dxz     :     0.006997
      dyz     :     0.005459
      dx2y2   :     0.008541
      dxy     :     0.009029

 12 C s       :     3.083369  s :     3.083369
      pz      :     0.922123  p :     2.591438
      px      :     0.775489
      py      :     0.893826
      dz2     :     0.008024  d :     0.059101
      dxz     :     0.012943
      dyz     :     0.007873
      dx2y2   :     0.015931
      dxy     :     0.014329

 13 H s       :     0.864675  s :     0.864675
      pz      :     0.002287  p :     0.011627
      px      :     0.002182
      py      :     0.007158

 14 H s       :     0.872741  s :     0.872741
      pz      :     0.006364  p :     0.011417
      px      :     0.002461
      py      :     0.002593

 15 H s       :     0.865252  s :     0.865252
      pz      :     0.006613  p :     0.010973
      px      :     0.002089
      py      :     0.002271

 16 H s       :     0.879212  s :     0.879212
      pz      :     0.004454  p :     0.012393
      px      :     0.004157
      py      :     0.003782

 17 H s       :     0.881313  s :     0.881313
      pz      :     0.003381  p :     0.012358
      px      :     0.002518
      py      :     0.006459

 18 H s       :     0.882950  s :     0.882950
      pz      :     0.003547  p :     0.012471
      px      :     0.002423
      py      :     0.006500

 19 H s       :     0.883197  s :     0.883197
      pz      :     0.004557  p :     0.012473
      px      :     0.004063
      py      :     0.003852

 20 H s       :     0.711615  s :     0.711615
      pz      :     0.009692  p :     0.023426
      px      :     0.008364
      py      :     0.005369

 21 H s       :     0.709366  s :     0.709366
      pz      :     0.006753  p :     0.023492
      px      :     0.004115
      py      :     0.012624

 22 H s       :     0.682629  s :     0.682629
      pz      :     0.009818  p :     0.024883
      px      :     0.007689
      py      :     0.007376

 23 H s       :     0.682841  s :     0.682841
      pz      :     0.008050  p :     0.024883
      px      :     0.004802
      py      :     0.012031

 24 H s       :     0.591602  s :     0.591602
      pz      :     0.006784  p :     0.036963
      px      :     0.007183
      py      :     0.022995


------------------------
MULLIKEN OVERLAP CHARGES
------------------------
B(  0-O ,  1-O ) :  -0.1599 B(  0-O ,  5-C ) :  -0.1465 B(  0-O ,  9-C ) :   0.5820 
B(  0-O , 24-H ) :   0.5587 B(  1-O ,  5-C ) :  -0.1620 B(  1-O ,  9-C ) :   1.2194 
B(  2-N ,  4-C ) :  -0.0857 B(  2-N ,  5-C ) :   0.5659 B(  2-N ,  9-C ) :  -0.0917 
B(  2-N , 15-H ) :  -0.1014 B(  2-N , 20-H ) :   0.6799 B(  2-N , 21-H ) :   0.6814 
B(  3-N , 10-C ) :  -0.1395 B(  3-N , 11-C ) :  -0.1398 B(  3-N , 12-C ) :   0.6531 
B(  3-N , 22-H ) :   0.7027 B(  3-N , 23-H ) :   0.7027 B(  4-C ,  5-C ) :   0.6596 
B(  4-C ,  6-C ) :   0.6621 B(  4-C ,  7-C ) :  -0.1153 B(  4-C ,  8-C ) :  -0.1127 
B(  4-C , 13-H ) :   0.7492 B(  4-C , 14-H ) :   0.7233 B(  4-C , 15-H ) :  -0.0853 
B(  5-C ,  6-C ) :  -0.0752 B(  5-C ,  9-C ) :   0.5693 B(  5-C , 13-H ) :  -0.0652 
B(  5-C , 14-H ) :  -0.0706 B(  5-C , 15-H ) :   0.7877 B(  5-C , 20-H ) :  -0.0665 
B(  5-C , 21-H ) :  -0.0592 B(  6-C ,  7-C ) :   1.0944 B(  6-C ,  8-C ) :   1.1069 
B(  6-C , 10-C ) :  -0.0740 B(  6-C , 11-C ) :  -0.0734 B(  6-C , 12-C ) :  -0.0611 
B(  6-C , 13-H ) :  -0.0576 B(  6-C , 14-H ) :  -0.0555 B(  6-C , 16-H ) :  -0.0850 
B(  6-C , 17-H ) :  -0.0821 B(  7-C ,  8-C ) :  -0.0661 B(  7-C , 10-C ) :   1.0085 
B(  7-C , 11-C ) :  -0.0965 B(  7-C , 16-H ) :   0.7364 B(  7-C , 18-H ) :  -0.0699 
B(  8-C , 10-C ) :  -0.0957 B(  8-C , 11-C ) :   1.0149 B(  8-C , 17-H ) :   0.7406 
B(  8-C , 19-H ) :  -0.0710 B(  9-C , 15-H ) :  -0.1086 B( 10-C , 11-C ) :  -0.1004 
B( 10-C , 12-C ) :   1.0816 B( 10-C , 16-H ) :  -0.0741 B( 10-C , 18-H ) :   0.7275 
B( 11-C , 12-C ) :   1.0825 B( 11-C , 17-H ) :  -0.0781 B( 11-C , 19-H ) :   0.7281 
B( 12-C , 18-H ) :  -0.0772 B( 12-C , 19-H ) :  -0.0772 B( 13-H , 14-H ) :  -0.0704 
B( 20-H , 21-H ) :  -0.0576 B( 22-H , 23-H ) :  -0.0518 


                     *******************************
                     * LOEWDIN POPULATION ANALYSIS *
                     *******************************

----------------------
LOEWDIN ATOMIC CHARGES
----------------------
   0 O :   -0.165931
   1 O :   -0.297020
   2 N :   -0.291857
   3 N :   -0.206398
   4 C :   -0.108938
   5 C :   -0.031870
   6 C :   -0.061907
   7 C :   -0.080969
   8 C :   -0.079282
   9 C :    0.169924
  10 C :   -0.124300
  11 C :   -0.124089
  12 C :    0.031724
  13 H :    0.084503
  14 H :    0.079667
  15 H :    0.074224
  16 H :    0.082729
  17 H :    0.082479
  18 H :    0.081082
  19 H :    0.080996
  20 H :    0.139252
  21 H :    0.139708
  22 H :    0.154943
  23 H :    0.154801
  24 H :    0.216529

-------------------------------
LOEWDIN REDUCED ORBITAL CHARGES
-------------------------------
  0 O s       :     3.476442  s :     3.476442
      pz      :     1.629338  p :     4.644219
      px      :     1.666158
[...]
 7 C  s               0.0       0.2
 7 C  pz              0.0       0.4
 7 C  px              0.3       0.4
 7 C  py              0.0       0.2
 7 C  dz2             0.1       0.8
 7 C  dxz             0.1       3.2
 7 C  dyz             0.5       1.5
 7 C  dx2y2           0.6       0.0
 7 C  dxy             0.5       6.1
 8 C  s               0.1       0.2
 8 C  pz              0.0       0.1
 8 C  px              0.2       0.1
 8 C  py              0.1       0.6
 8 C  dxz             0.0       2.4
 8 C  dyz             0.7       2.2
 8 C  dx2y2           0.8       5.2
 8 C  dxy             0.0       1.6
 9 C  dz2             0.3       0.0
 9 C  dxz             0.1       0.0
 9 C  dx2y2           0.4       0.0
 9 C  dxy             0.1       0.0
10 C  s               0.1       0.2
10 C  pz              0.0       0.1
10 C  px              0.3       0.2
10 C  py              0.1       0.7
10 C  dxz             0.1       2.4
10 C  dyz             1.1       2.4
10 C  dx2y2           1.1       5.1
10 C  dxy             0.2       1.6
11 C  s               0.1       0.2
11 C  pz              0.0       0.4
11 C  px              0.3       0.4
11 C  py              0.0       0.2
11 C  dz2             0.1       0.8
11 C  dxz             0.0       3.2
11 C  dyz             1.1       1.5
11 C  dx2y2           0.4       0.0
11 C  dxy             0.4       6.1
12 C  dz2             0.5       0.7
12 C  dxz             1.1       0.1
12 C  dyz             0.0       1.7
12 C  dx2y2           0.9       3.0
12 C  dxy             1.1       1.5
13 H  s               2.0       0.0
13 H  py              6.8       0.1
14 H  s               2.6       0.1
14 H  pz              8.2       0.2
14 H  px              0.3       0.0
14 H  py              0.7       0.0
15 H  s               1.6       0.0
15 H  pz              5.8       0.0
15 H  px              0.3       0.0
15 H  py              0.6       0.0
16 H  s               0.2       2.0
16 H  pz              0.3       2.2
16 H  px              0.9       2.0
16 H  py              0.0       1.4
17 H  s               0.2       2.0
17 H  pz              0.0       0.9
17 H  px              0.5       0.6
17 H  py              0.6       3.9
18 H  s               0.3       2.1
18 H  pz              0.0       1.0
18 H  px              0.9       0.7
18 H  py              0.7       4.0
19 H  s               0.2       2.0
19 H  pz              0.2       2.1
19 H  px              1.1       2.1
19 H  py              0.0       1.4
21 H  px              0.1       0.0
22 H  s               1.9       0.1
22 H  pz              0.3       0.0
22 H  px              1.2       0.2
22 H  py              3.2       0.0
23 H  s               1.8       0.1
23 H  pz              2.9       0.1
23 H  px              0.2       0.1
23 H  py              1.2       0.0
24 H  s               0.7       0.0
24 H  py              1.4       0.0


                      *****************************
                      * MAYER POPULATION ANALYSIS *
                      *****************************

  NA   - Mulliken gross atomic population
  ZA   - Total nuclear charge
  QA   - Mulliken gross atomic charge
  VA   - Mayer's total valence
  BVA  - Mayer's bonded valence
  FA   - Mayer's free valence

  ATOM       NA         ZA         QA         VA         BVA        FA
  0 O      8.4917     8.0000    -0.4917     2.0349     2.0349    -0.0000
  1 O      8.5159     8.0000    -0.5159     2.0145     2.0145    -0.0000
  2 N      7.6321     7.0000    -0.6321     2.8211     2.8211    -0.0000
  3 N      7.6455     7.0000    -0.6455     2.9408     2.9408    -0.0000
  4 C      6.2453     6.0000    -0.2453     3.8743     3.8743    -0.0000
  5 C      5.9928     6.0000     0.0072     3.8292     3.8292    -0.0000
  6 C      5.9214     6.0000     0.0786     3.9385     3.9385    -0.0000
  7 C      6.1543     6.0000    -0.1543     3.9461     3.9461    -0.0000
  8 C      6.1521     6.0000    -0.1521     3.9446     3.9446    -0.0000
  9 C      5.4363     6.0000     0.5637     3.9356     3.9356    -0.0000
 10 C      6.1473     6.0000    -0.1473     3.8890     3.8890    -0.0000
 11 C      6.1460     6.0000    -0.1460     3.8897     3.8897    -0.0000
 12 C      5.7851     6.0000     0.2149     3.9621     3.9621    -0.0000
 13 H      0.8736     1.0000     0.1264     0.9524     0.9524    -0.0000
 14 H      0.8818     1.0000     0.1182     0.9582     0.9582    -0.0000
 15 H      0.8828     1.0000     0.1172     0.9505     0.9505    -0.0000
 16 H      0.8952     1.0000     0.1048     0.9617     0.9617     0.0000
 17 H      0.8958     1.0000     0.1042     0.9577     0.9577     0.0000
 18 H      0.8951     1.0000     0.1049     0.9570     0.9570    -0.0000
 19 H      0.8950     1.0000     0.1050     0.9569     0.9569    -0.0000
 20 H      0.7300     1.0000     0.2700     0.9054     0.9054    -0.0000
 21 H      0.7283     1.0000     0.2717     0.9078     0.9078    -0.0000
 22 H      0.7121     1.0000     0.2879     0.9025     0.9025    -0.0000
 23 H      0.7120     1.0000     0.2880     0.9025     0.9025    -0.0000
 24 H      0.6326     1.0000     0.3674     0.8793     0.8793    -0.0000

  Mayer bond orders larger than 0.100000
B(  0-O ,  9-C ) :   1.1145 B(  0-O , 24-H ) :   0.8264 B(  1-O ,  9-C ) :   1.8654 
B(  2-N ,  5-C ) :   0.9992 B(  2-N , 20-H ) :   0.8987 B(  2-N , 21-H ) :   0.8948 
B(  3-N , 12-C ) :   1.0643 B(  3-N , 22-H ) :   0.8880 B(  3-N , 23-H ) :   0.8879 
B(  4-C ,  5-C ) :   0.9613 B(  4-C ,  6-C ) :   0.9900 B(  4-C , 13-H ) :   0.9372 
B(  4-C , 14-H ) :   0.9370 B(  5-C ,  9-C ) :   0.9208 B(  5-C , 15-H ) :   0.9311 
B(  6-C ,  7-C ) :   1.4149 B(  6-C ,  8-C ) :   1.4157 B(  7-C , 10-C ) :   1.4382 
B(  7-C , 16-H ) :   0.9335 B(  8-C , 11-C ) :   1.4425 B(  8-C , 17-H ) :   0.9361 
B( 10-C , 12-C ) :   1.3824 B( 10-C , 18-H ) :   0.9357 B( 11-C , 12-C ) :   1.3794 
B( 11-C , 19-H ) :   0.9357 

-------
TIMINGS
-------

Total SCF time: 0 days 0 hours 0 min 37 sec 

Total time                  ....      37.241 sec
Sum of individual times     ....      34.575 sec  ( 92.8%)

SCF preparation             ....       0.611 sec  (  1.6%)
Fock matrix formation       ....      33.496 sec  ( 89.9%)
  Startup                   ....       0.004 sec  (  0.0% of F)
  Split-RI-J                ....       2.164 sec  (  6.5% of F)
  Chain of spheres X        ....      28.146 sec  ( 84.0% of F)
  XC integration            ....       3.362 sec  ( 10.0% of F)
    XC Preparation          ....       0.000 sec  (  0.0% of XC)
    Basis function eval.    ....       1.285 sec  ( 38.2% of XC)
    Density eval.           ....       0.799 sec  ( 23.8% of XC)
    XC-Functional eval.     ....       0.189 sec  (  5.6% of XC)
    XC-Potential eval.      ....       0.903 sec  ( 26.9% of XC)
  CPCM terms                ....       2.373 sec  (  7.1% of F)
Diagonalization             ....       0.000 sec  (  0.0%)
Density matrix formation    ....       0.013 sec  (  0.0%)
Total Energy calculation    ....       0.008 sec  (  0.0%)
Population analysis         ....       0.342 sec  (  0.9%)
Orbital Transformation      ....       0.017 sec  (  0.0%)
Orbital Orthonormalization  ....       0.000 sec  (  0.0%)
DIIS solution               ....       0.023 sec  (  0.1%)
  MO trafo                  ....       0.000 sec  (  0.0 % of DIIS)
  Orb grad                  ....       0.000 sec  (  0.0 % of DIIS)
  Energy W gradient         ....       0.000 sec  (  0.0 % of DIIS)
  DIIS error                ....       0.006 sec  ( 27.7 % of DIIS)
  DIIS work                 ....       0.015 sec  ( 67.6 % of DIIS)
  Form Q                    ....       0.000 sec  (  0.0 % of DIIS)
  Form QpQm                 ....       0.000 sec  (  0.0 % of DIIS)
  Exp/Cayley                ....       0.000 sec  (  0.0 % of DIIS)
  Orb update                ....       0.000 sec  (  0.0 % of DIIS)
  Wake-sleep                ....       0.001 sec  (  4.4 % of DIIS)
SOSCF solution              ....       0.065 sec  (  0.2%)
  MO trafo                  ....       0.028 sec  ( 42.9 % of SOSCF)
  Orb grad                  ....       0.002 sec  (  2.5 % of SOSCF)
  Rot update                ....       0.004 sec  (  6.5 % of SOSCF)
  Step                      ....       0.028 sec  ( 42.4 % of SOSCF)
Finished LeanSCF after  37.4 sec

Maximum memory used throughout the entire LEANSCF-calculation: 41.2 MB


-------------------------------------------------------------------------------
                          DFT DISPERSION CORRECTION                            
                                                                               
                              DFTD3 V3.1  Rev 1                                
                          USING Becke-Johnson damping                          
-------------------------------------------------------------------------------
The B3LYP functional is recognized
Active option DFTDOPT                   ...         4   

molecular C6(AA) [au] = 6281.118486 


            DFT-D V3
 parameters
 s6 scaling factor         :     1.0000 
 a1 scaling factor         :     0.3981 
 s8 scaling factor         :     1.9889 
 a2 scaling factor         :     4.4211 
 ad hoc parameters k1-k3   :    16.0000     1.3333    -4.0000 

 Edisp/kcal,au: -29.487655501897  -0.046991565188 
 E6   /kcal   : -14.046293861 
 E8   /kcal   : -15.441361641 
 % E8         :  52.365511526 

-------------------------   ----------------
Dispersion correction           -0.046991565
-------------------------   ----------------


-------------------------   --------------------
FINAL SINGLE POINT ENERGY      -609.870920876577
-------------------------   --------------------

                                *** OPTIMIZATION RUN DONE ***



           ************************************************************
           *        Program running with 2 parallel MPI-processes     *
           *              working on a common directory               *
           ************************************************************

------------------------------------------------------------------------------
                              ORCA PROPERTY CALCULATIONS
------------------------------------------------------------------------------

GBWName                                 ... /kaggle/working/Phe-NH2-1/Phe-NH2_InterFrag.gbw
Number of atoms                         ...     25
Number of basis functions               ...    242
Max core memory                         ...   3000 MB

Electric properties:
Dipole moment                           ... YES
Quadrupole moment                       ...  NO
Static polarizability (Dipole/Dipole)   ...  NO
Static polarizability (Dipole/Quad.)    ...  NO
Static polarizability (Quad./Quad.)     ...  NO
Static polarizability (Velocity)        ...  NO
Static hyperpolarizability              ...  NO

Atomic electric properties:
Dipole moment                           ...  NO
Quadrupole moment                       ...  NO
Static polarizability                   ...  NO

Choice of electric origin               ... Center of mass
Position of electric origin             ...     0.138967     0.093111    -0.088266

General magnetic properties:
Magnetizability                         ...  NO

EPR properties:
g-Tensor (aka g-matrix)                 ...  NO
Zero-Field splitting spin-orbit         ...  NO
Zero-field splitting spin-spin          ...  NO
Hyperfine couplings                     ...  NO (   0 nuclei)
Quadrupole couplings                    ...  NO (   0 nuclei)
Contact density                         ...  NO (   0 nuclei)

NMR properties:
Chemical shifts                         ...  NO (   0 nuclei)
Spin-rotation constants                 ...  NO (   0 nuclei)
Spin-spin couplings                     ...  NO (   0 nuclei,    0 pairs)

Choice of magnetic origin               ... GIAO
Position of magnetic origin             ...     0.000000     0.000000     0.000000

Properties with geometric perturbations:
SCF Hessian                             ...  NO
IR spectrum                             ...  NO
VCD spectrum                            ...  NO
X-ray spectroscopy properties:
SCF XES/XAS/RIXS spectra                ...  NO

SCF SOC stabilization energy            ...  NO
Diagonal Born-Oppenheimer correction    ...  NO

-------------
DIPOLE MOMENT
-------------

Method             : SCF
Type of density    : Electron Density
Multiplicity       :   1
Irrep              :   0
Energy             :  -609.8239293113889516 Eh
Basis              : AO
                                X                 Y                 Z
Electronic contribution:      1.028946303       3.797164846      -0.731289673
Nuclear contribution   :     -2.505087375      -4.574517730      -0.201238819
                        -----------------------------------------
Total Dipole Moment    :     -1.476141071      -0.777352883      -0.932528492
                        -----------------------------------------
Magnitude (a.u.)       :      1.911250731
Magnitude (Debye)      :      4.858013285



--------------------
Rotational spectrum 
--------------------
 
Rotational constants in cm-1:             0.055992             0.014989             0.013550 
Rotational constants in MHz :          1678.608381           449.353559           406.223960 

Dipole components along the rotational axes: 
x,y,z [a.u.] :     1.456443    -0.820062    -0.926904 
x,y,z [Debye]:     3.701984    -2.084433    -2.356003 

 

Dipole moment calculation done in   0.0 sec 

Maximum memory used throughout the entire PROP-calculation: 14.7 MB

--------------------------------
SUGGESTED CITATIONS FOR THIS RUN
--------------------------------

Below you find a list of papers that are relevant to this ORCA run
We neither can nor want to force you to cite these papers, but we appreciate if you do
You receive ORCA, which is the product of decades of hard work by many enthusiastic individuals, for free
The only thing we kindly ask in return is that you cite our papers,
We deeply appreciate it, if you show your appreciation for ORCA by not just citing the generic ORCA reference.

Please note that relegating all ORCA citations to the supporting information does *not* help us.
SI sections are not indexed - citations you put there will not count into any citation statistics
But we need these citations in order to attract the funding resources that allow us to do what we are doing

Therefore, if you are a happy ORCA user, please consider citing a few of the papers listed below in the main body of your paper

In addition to the list printed below, the program has created the file /kaggle/working/Phe-NH2-1/Phe-NH2_InterFrag.bibtex that contains the list in bibtex format
You can import this file easily into all common literature databanks and citation aid programs

It goes without saying that in many instances, there are alternative algorithms to achieve similar
results as the ones you have gotten from ORCA. It is, of course, also the case that in some instances
ORCA just re-implements algorithms worked out by others. We are fully aware of that and we are also
fully appreciative of our colleagues work. Hence this citation list should not be read as indicating
that the listed papers, which are focused on our own work, are the only ones worth citing. It simply
meant to make it easier for users to cite ORCA specific papers. It is not a substitute for doing your
own literature research and citing the relevant literature in a scientifically appropriate manner.

List of essential papers. We consider these as the minimum necessary citations

  1. Neese, F.
     Software update: the ORCA program system, version 6.0
     WIRES Comput. Molec. Sci. 2025 15(1), e70019
     doi.org/10.1002/wcms.70019

List of papers to cite with high priority. The work reported in these papers was absolutely
necessary for this run to complete.
Our perspective: the developers of density functionals and basis sets usually get cited in chemistry papers
Good! But without the algorithms to do something with them, the functionals or basis sets would not do anything.
Hence, in our opinion, the algorithm design and method developments papers are equally worthy of getting cited

  1. Neese, F.
     An improvement of the resolution of the identity approximation for the formation of the Coulomb matrix
     J. Comp. Chem. 2003 24(14), 1740-1747
     doi.org/10.1002/jcc.10318
  2. Neese, F.; Wennmohs, F.; Hansen, A.; Becker, U.
     Efficient, approximate and parallel Hartree-Fock and hybrid DFT calculations. A 'chain-of-spheres' algorithm for the Hartree-Fock exchange
     Chem. Phys. 2009 356(1-3), 98-109
     doi.org/10.1016/j.chemphys.2008.10.036
  3. Grimme, S.; Antony, J.; Ehrlich, S.; Krieg, H.
     A consistent and accurate ab initio parametrization of density functional dispersion correction (DFT-D) for the 94 elements H-Pu
     J. Chem. Phys. 2010 132 , 154104
     doi.org/10.1063/1.3382344
  4. Grimme, S.; Ehrlich, S.; Goerigk, L.
     Effect of the damping function in dispersion corrected density functional theory
     J. Comput. Chem. 2011 32(7), 1456-1465
     doi.org/10.1002/jcc.21759
  5. Garcia-Rates, M.; Neese, F.
     Effect of the Solute Cavity on the Solvation Energy and its Derivatives within the Framework of the Gaussian Charge Scheme
     J. Comput. Chem. 2020 41 , 922-939
     doi.org/10.1002/jcc.26139
  6. Helmich-Paris, B.; de Souza, B.; Neese, F.; Izsák, R.
     An improved chain of spheres for exchange algorithm
     J. Chem. Phys. 2021 155(10), 104109
     doi.org/10.1063/5.0058766
  7. Neese, F.
     The SHARK Integral Generation and Digestion System
     J. Comp. Chem. 2022 44(3), 381
     doi.org/10.1002/jcc.26942

List of suggested additional citations. These are papers that are important in the 'surrounding' of 
of this run, or papers that preceded the highly important papers. If you like your results we are grateful for a citation.

  1. Izsak, R.; Neese, F.
     An overlap fitted chain of spheres exchange method
     J. Chem. Phys. 2011 135 , 144105
     doi.org/10.1063/1.3646921
  2. Izsak, R.; Hansen, A.; Neese, F.
     The resolution of identity and chain of spheres approximations for the LPNO-CCSD singles Fock term
     Molec. Phys. 2012 110 , 2413-2417
     doi.org/10.1080/00268976.2012.687466
  3. Neese, F.
     The ORCA program system
     WIRES Comput. Molec. Sci. 2012 2(1), 73-78
     doi.org/10.1002/wcms.81
  4. Izsak, R.; Neese, F.; Klopper, W.
     Robust fitting techniques in the chain of spheres approximation to the Fock exchange: The role of the complementary space
     J. Chem. Phys. 2013 139 , 
     doi.org/10.1063/1.4819264
  5. Neese, F.
     Software update: the ORCA program system, version 4.0
     WIRES Comput. Molec. Sci. 2018 8(1), 1-6
     doi.org/10.1002/wcms.1327
  6. Neese, F.; Wennmohs, F.; Becker, U.; Riplinger, C.
     The ORCA quantum chemistry program package
     J. Chem. Phys. 2020 152(22), 224108
     doi.org/10.1063/5.0004608
  7. Neese, F.
     Software update: The ORCA program system—Version 5.0
     WIRES Comput. Molec. Sci. 2022 12(1), e1606
     doi.org/10.1002/wcms.1606

List of optional additional citations

  1. Neese, F.
     Approximate second-order SCF convergence for spin unrestricted wavefunctions
     Chem. Phys. Lett. 2000 325(1-3), 93-98
     doi.org/10.1016/s0009-2614(00)00662-x

Timings for individual modules:

Sum of individual times          ...     1780.749 sec (=  29.679 min)
Startup calculation              ...       56.932 sec (=   0.949 min)   3.2 %
SCF iterations                   ...     1084.014 sec (=  18.067 min)  60.9 %
Property calculations            ...        0.441 sec (=   0.007 min)   0.0 %
SCF Gradient evaluation          ...      639.223 sec (=  10.654 min)  35.9 %
Geometry relaxation              ...        0.140 sec (=   0.002 min)   0.0 %
                             ****ORCA TERMINATED NORMALLY****
TOTAL RUN TIME: 0 days 0 hours 29 minutes 48 seconds 871 msec
