
                                 *****************
                                 * O   R   C   A *
                                 *****************

                                            #,                                       
                                            ###                                      
                                            ####                                     
                                            #####                                    
                                            ######                                   
                                           ########,                                 
                                     ,,################,,,,,                         
                               ,,#################################,,                 
                          ,,##########################################,,             
                       ,#########################################, ''#####,          
                    ,#############################################,,   '####,        
                  ,##################################################,,,,####,       
                ,###########''''           ''''###############################       
              ,#####''   ,,,,##########,,,,          '''####'''          '####       
            ,##' ,,,,###########################,,,                        '##       
           ' ,,###''''                  '''############,,,                           
         ,,##''                                '''############,,,,        ,,,,,,###''
      ,#''                                            '''#######################'''  
     '                                                          ''''####''''         
             ,#######,   #######,   ,#######,      ##                                
            ,#'     '#,  ##    ##  ,#'     '#,    #''#        ,####,    ,#,          
            ##       ##  ##   ,#'  ##            #'  '#       #'       ,# #          
            ##       ##  #######   ##           ,######,      #####,      #          
            '#,     ,#'  ##    ##  '#,     ,#' ,#      #,     #,   #      #          
             '#######'   ##     ##  '#######'  #'      '#     '####' #    #          



                #########################################################
                #                        -***-                          #
                #          Department of theory and spectroscopy        #
                #                                                       #
                #                      Frank Neese                      #
                #                                                       #
                #     Directorship, Architecture, Infrastructure        #
                #                    SHARK, DRIVERS                     #
                #        Core code/Algorithms in most modules           #
                #                                                       #
                #        Max Planck Institute fuer Kohlenforschung      #
                #                Kaiser Wilhelm Platz 1                 #
                #                 D-45470 Muelheim/Ruhr                 #
                #                      Germany                          #
                #                                                       #
                #                  All rights reserved                  #
                #                        -***-                          #
                #########################################################


                         Program Version 6.1.1  -  RELEASE   -
                                (GIT: $487d211c$)
                          ($2025-11-21 10:33:24 +0100$)
                                                                         
                                  - NO-DMRG VERSION -                    
                                                                         


 With contributions from (in alphabetic order):
[Max-Planck-Institut fuer Kohlenforschung]                               
  Daniel Aravena         : Magnetic Suceptibility                        
  Michael Atanasov       : Ab Initio Ligand Field Theory (pilot matlab implementation)
  Alexander A. Auer      : GIAO ZORA, VPT2 properties, NMR spectrum      
  Ute Becker             : All parallelization in ORCA, NUMFREQ, NUMCALC 
  Giovanni Bistoni       : ED, misc. LED, open-shell LED, HFLD           
  Dmytro Bykov           : pre 5.0 version of the SCF Hessian            
  Marcos Casanova-Páez   : Triplet and SCS-CIS(D). UHF-(DLPNO)-IP/EA/STEOM-CCSD. UHF-CVS-IP/STEOM-CCSD   
  Vijay G. Chilkuri      : MRCI spin determinant printing, contributions to CSF-ICE 
  Pauline Colinet        : FMM embedding                                 
  Dipayan Datta          : RHF DLPNO-CCSD density                        
  Achintya Kumar Dutta   : EOM-CC, STEOM-CC                              
  Nicolas Foglia         : Exact transition moments, OPA infrastructure, MCD improvements    
  Dmitry Ganyushin       : Spin-Orbit,Spin-Spin,Magnetic field MRCI      
  Miquel Garcia-Rates    : C-PCM and meta-GGA Hessian, CCSD/C-PCM, Gaussian charge scheme 
  Tiago L. C. Gouveia    : GS-ROHF, GS-ROCIS                             
  Yang Guo               : DLPNO-NEVPT2, F12-NEVPT2, CIM, IAO-localization        
  Andreas Hansen         : Spin unrestricted coupled pair/coupled cluster methods 
  Ingolf Harden          : AUTO-CI MPn and infrastructure                
  Benjamin Helmich-Paris : MC-RPA, TRAH-(SCF,CASSCF), AVAS, COSX integrals, SCF dyn. polar., MC-PDFT, srDFT 
  Lee Huntington         : MR-EOM, pCC                                   
  Robert Izsak           : Overlap fitted RIJCOSX, COSX-SCS-MP3, EOM     
  Riya Kayal             : Wick's Theorem for AUTO-CI, AUTO-CI UHF-CCSDT 
  Emily Kempfer          : AUTO-CI RHF CISDT and CCSDT, approximate NEVPT4
  Christian Kollmar      : KDIIS, OOCD, Brueckner-CCSD(T), CCSD density, CASPT2, CASPT2-K, improved NEVPT2 
  Axel Koslowski         : Symmetry handling                             
  Simone Kossmann        : meta-GGA functionals, TD-DFT gradient, OOMP2, (MP2 Hessian; deprecated post 5.0) 
  Lucas Lang             : DCDCAS, Hyperfine gauge corrections, ICE-SOC+SSC
  Marvin Lechner         : AUTO-CI (C++ implementation), FIC-MRCC        
  Spencer Leger          : CASSCF response                               
  Dagmar Lenk            : GEPOL surface, SMD, ORCA-2-JSON               
  Dimitrios Liakos       : Extrapolation schemes; Compound Job, Property file
  Dimitrios Manganas     : Further ROCIS development; embedding schemes. LFT, Crystal Embedding 
  Dimitrios Pantazis     : SARC Basis sets                               
  Anastasios Papadopoulos: AUTO-CI, single reference methods and gradients 
  Taras Petrenko         : pre 6.0 DFT Hessian and TD-DFT gradient,  ECA, NRVS 
  Petra Pikulova         : Analytic Raman intensities                    
  Peter Pinski           : DLPNO-MP2, DLPNO-MP2 Gradient                 
  Shashank Vittal Rao    : ES-AILFT, MagRelax                            
  Christoph Reimann      : Effective Core Potentials                     
  Marius Retegan         : Local ZFS, SOC                                
  Christoph Riplinger    : Optimizer, TS searches, QM/MM, DLPNO-CCSD(T), (RO)-DLPNO pert. Triples 
  Michael Roemelt        : Original ROCIS implementation, recursive CI coupling coefficients
  Masaaki Saitow         : Open-shell DLPNO-CCSD energy and density      
  Barbara Sandhoefer     : DKH picture change effects                    
  Yorick L. A. Schmerwitz: GMF and freeze-and-release deltaSCF, NEB S-IDPP initial path                    
  Kantharuban Sivalingam : CASSCF convergence/infrastructure, NEVPT2, NEVPT3, NEVPT4(SD), FIC-MRCI and CEPA variants
  Bernardo de Souza      : ESD, SOC TD-DFT                               
  Georgi L. Stoychev     : AutoAux, RI-MP2 NMR, DLPNO-MP2 response, X2C  
  Van Anh Tran           : RI-MP2 g-tensors                              
  Willem Van den Heuvel  : Paramagnetic NMR                              
  Zikuan Wang            : NOTCH, Electric field optimization            
  Frank Wennmohs         : Technical directorship and infrastructure     
  Hang Xu                : AUTO-CI-Response properties                   
                                                                         
[FACCTs GmbH]                                                            
  Markus Bursch, Nicolas Foglia, Miquel Garcia-Rates, Ingolf Harden, Hagen Neugebauer, Anastasios Papadopoulos, 
  Christoph Riplinger, Bernardo de Souza, Georgi L. Stoychev                                                    
                                                                 
  APM, various basis sets, CI-OPT, improved COSX, DLPNO-Multilevel,           
  DOCKER, DRACO, updates on ESD, Fragmentator, GOAT, IRC, LR-CPCM, L-BFGS, MBIS, meta-GGA TD-DFT gradient, ML-optimized integration grids, 
  MM, NACMEs, nearIR, NEB, NEB-TS, NL-DFT gradient (VV10), 2- and 3-layer-ONIOM, interface openCOSMO-RS, QMMM,   
  Crystal-QMMM, RESP, rigid body optimization, SF, symmetry and pop. for TD-DFT, various functionals, SOLVATOR                                   
                                                                         
[Other institutions]                                                     
  V. Asgeirsson          : NEB                                           
  Christoph Bannwarth    : sTDA-DFT, sTD-DFT, PBEh-3c, B97-3c, D3        
  Giovanni Bistoni       : ETS/NOCV, ADLD/ADEX, COVALED                  
  Martin Brehm           : Molecular dynamics                            
  Ronald Cardenas        : ETS/NOCV                                      
  Martina Colucci        : COVALED                                       
  Sebastian Ehlert       : rSCAN, r2SCAN, r2SCAN-3c, D4, dhf basis sets  
  Marvin Friede          : D4 for Fr, Ra, Ac-Lr                          
  Lars Goerigk           : TD-DFT with DH, B97 family of functionals     
  Stefan Grimme          : VdW corrections, initial TS optimization, DFT functionals, gCP, sTDA/sTD-DF 
  Waldemar Hujo          : DFT-NL                                        
  H. Jonsson             : NEB                                           
  Holger Kruse           : gCP                                           
  Marcel Mueller         : wB97X-3c, vDZP basis set                      
  Hagen Neugebauer       : wr2SCAN, Native XTB                           
  Gianluca Regni         : ADLD/ADEX                                     
  Tobias Risthaus        : pre 6.0 range-separated hybrid DFT and stability analysis
  Lukas Wittmann         : regularized MP2, r2SCAN double-hybrids, wr2SCAN        
                                                                         
We gratefully acknowledge several colleagues who have allowed us to      
interface, adapt or use parts of their codes:                            
  Ed Valeev, F. Pavosevic, A. Kumar             : LibInt (2-el integral package), F12 methods 
  Garnet Chan, S. Sharma, J. Yang, R. Olivares  : DMRG                   
  Ulf Ekstrom                                   : XCFun DFT Library      
  Mihaly Kallay                                 : mrcc  (arbitrary order and MRCC methods)
  Frank Weinhold                                : gennbo (NPA and NBO analysis)           
  Simon Mueller                                 : openCOSMO-RS                            
  Christopher J. Cramer and Donald G. Truhlar   : smd solvation model                     
  S Lehtola, MJT Oliveira, MAL Marques          : LibXC Library                           
  Liviu Ungur et al                             : ANISO software                          


 Your calculation uses the libint2 library for the computation of 2-el integrals
 For citations please refer to: http://libint.valeyev.net

 Your ORCA version has been built with support for libXC version: 7.0.0
 For citations please refer to: https://libxc.gitlab.io

 This ORCA versions uses:
   CBLAS   interface :  Fast vector & matrix operations
   LAPACKE interface :  Fast linear algebra routines
   SCALAPACK package :  Parallel linear algebra routines
   Shared memory     :  Shared parallel matrices
   BLAS/LAPACK       :  OpenBLAS 0.3.29  USE64BITINT DYNAMIC_ARCH NO_AFFINITY SkylakeX SINGLE_THREADED
        Core in use  :  SkylakeX
   Copyright (c) 2011-2014, The OpenBLAS Project


  ***********************************
  * Starting time: Tue Mar 24 18:46:02 2026
  * Host name:     0a7b236d4d01
  * Process ID:    1047
  * Working dir.:  /kaggle/working
  ***********************************

NOTE: MaxCore=3000 MB was set to SCF,MP2,MDCI,CIPSI,MRCI,RASCI and CIS
      => If you want to overwrite this, your respective input block should be placed after the MaxCore statement
Your calculation utilizes the atom-pairwise dispersion correction
with the Becke-Johnson damping scheme (D3BJ)


Warning: RI is on but no J-basis has been assigned. Assigning Def2/J (nothing to worry about!)
================================================================================

----- Orbital basis set information -----
Your calculation utilizes the basis: 6-31G(d,p)
   H-He, Li-Ne : W. J. Hehre, R. Ditchfield and J.A. Pople, J. Chem. Phys. 56, 2257 (1972).
                 Note: He and Ne are unpublished basis sets taken from the Gaussian program.
                 Note: Li and B from J. D. Dill and J. A. Pople, J. Chem. Phys. 62, 2921 (1975).
   Na - Ar     : M. M. Francl, W. J. Pietro, W. J. Hehre, J. S. Binkley, M. S. Gordon, 
                 D. J. DeFrees and J. A. Pople, J. Chem. Phys. 77, 3654 (1982).
   K - Zn      : V. A. Rassolov, J. A. Pople, M. A. Ratner, and T. L. Windus, J. Chem. Phys. 109, 1223 (1998).

----- AuxJ basis set information -----
Your calculation utilizes the auxiliary basis: def2/J
   H-Rn: F. Weigend, Phys. Chem. Chem. Phys. 8, 1057 (2006).
   Fr-Lr: K. Eichkorn, F. Weigend, O. Treutler, R. Ahlrichs; Theor. Chem. Acc. 97, 119 (1997).

================================================================================
                                        WARNINGS
                       Please study these warnings very carefully!
================================================================================


================================================================================
                                       INPUT FILE
================================================================================
NAME = /kaggle/working/Phe-NH2-2/Phe-NH2_InterFrag.inp
|  1> 
|  2> !RKS B3LYP 6-31G(d,p) TightSCF D3BJ # def2-TZVPP
|  3> 
|  4> %pal nprocs 2 end
|  5> %maxcore 3000
|  6> 
|  7> %elprop
|  8>   Polar 1      # polarizability via CP-SCF
|  9> end
| 10> 
| 11> %output
| 12>   PrintLevel Normal
| 13>   Print[ P_OrbEn ] 2
| 14> end
| 15> 
| 16> *xyz 0 1
| 17>   O      1.533022    1.357145   -1.365029
| 18>   O      2.752888    1.507420    0.523634
| 19>   N      3.510426   -1.210870    0.001650
| 20>   N     -4.111268    0.797050   -0.449168
| 21>   C      1.157168   -1.172287    0.708018
| 22>   C      2.183925   -0.694599   -0.346896
| 23>   C     -0.246046   -0.684579    0.447439
| 24>   C     -0.722301    0.498594    1.029105
| 25>   C     -1.101743   -1.371018   -0.424918
| 26>   C      2.213867    0.824587   -0.331912
| 27>   C     -2.000100    0.980992    0.755431
| 28>   C     -2.381783   -0.901065   -0.707851
| 29>   C     -2.852787    0.288526   -0.122675
| 30>   H      1.187535   -2.267850    0.704132
| 31>   H      1.507881   -0.834561    1.688795
| 32>   H      1.829542   -1.007818   -1.337447
| 33>   H     -0.080510    1.052290    1.710181
| 34>   H     -0.761454   -2.294611   -0.887359
| 35>   H     -2.349283    1.897891    1.223508
| 36>   H     -3.030233   -1.454105   -1.382770
| 37>   H      4.151069   -1.003336   -0.763114
| 38>   H      3.439594   -2.226758    0.029733
| 39>   H     -4.773303    0.091403   -0.750174
| 40>   H     -4.510221    1.395274    0.264704
| 41>   H      1.540818    2.326884   -1.261317
| 42> 
| 43> *
| 44> 
| 45>                          ****END OF INPUT****
================================================================================

                       ****************************
                       * Single Point Calculation *
                       ****************************

---------------------------------
CARTESIAN COORDINATES (ANGSTROEM)
---------------------------------
  O      1.533022    1.357145   -1.365029
  O      2.752888    1.507420    0.523634
  N      3.510426   -1.210870    0.001650
  N     -4.111268    0.797050   -0.449168
  C      1.157168   -1.172287    0.708018
  C      2.183925   -0.694599   -0.346896
  C     -0.246046   -0.684579    0.447439
  C     -0.722301    0.498594    1.029105
  C     -1.101743   -1.371018   -0.424918
  C      2.213867    0.824587   -0.331912
  C     -2.000100    0.980992    0.755431
  C     -2.381783   -0.901065   -0.707851
  C     -2.852787    0.288526   -0.122675
  H      1.187535   -2.267850    0.704132
  H      1.507881   -0.834561    1.688795
  H      1.829542   -1.007818   -1.337447
  H     -0.080510    1.052290    1.710181
  H     -0.761454   -2.294611   -0.887359
  H     -2.349283    1.897891    1.223508
  H     -3.030233   -1.454105   -1.382770
  H      4.151069   -1.003336   -0.763114
  H      3.439594   -2.226758    0.029733
  H     -4.773303    0.091403   -0.750174
  H     -4.510221    1.395274    0.264704
  H      1.540818    2.326884   -1.261317

----------------------------
CARTESIAN COORDINATES (A.U.)
----------------------------
  NO LB      ZA    FRAG     MASS         X           Y           Z
   0 O     8.0000    0    15.999    2.896992    2.564632   -2.579531
   1 O     8.0000    0    15.999    5.202204    2.848611    0.989525
   2 N     7.0000    0    14.007    6.633744   -2.288213    0.003118
   3 N     7.0000    0    14.007   -7.769171    1.506206   -0.848805
   4 C     6.0000    0    12.011    2.186731   -2.215301    1.337960
   5 C     6.0000    0    12.011    4.127020   -1.312602   -0.655538
   6 C     6.0000    0    12.011   -0.464960   -1.293667    0.845537
   7 C     6.0000    0    12.011   -1.364951    0.942206    1.944727
   8 C     6.0000    0    12.011   -2.081993   -2.590849   -0.802979
   9 C     6.0000    0    12.011    4.183602    1.558244   -0.627223
  10 C     6.0000    0    12.011   -3.779641    1.853806    1.427558
  11 C     6.0000    0    12.011   -4.500918   -1.702766   -1.337645
  12 C     6.0000    0    12.011   -5.390986    0.545235   -0.231822
  13 H     1.0000    0     1.008    2.244116   -4.285615    1.330617
  14 H     1.0000    0     1.008    2.849482   -1.577092    3.191360
  15 H     1.0000    0     1.008    3.457333   -1.904500   -2.527409
  16 H     1.0000    0     1.008   -0.152142    1.988540    3.231774
  17 H     1.0000    0     1.008   -1.438940   -4.336186   -1.676865
  18 H     1.0000    0     1.008   -4.439501    3.586494    2.312095
  19 H     1.0000    0     1.008   -5.726310   -2.747860   -2.613057
  20 H     1.0000    0     1.008    7.844384   -1.896030   -1.442076
  21 H     1.0000    0     1.008    6.499891   -4.207963    0.056187
  22 H     1.0000    0     1.008   -9.020235    0.172727   -1.417623
  23 H     1.0000    0     1.008   -8.523082    2.636686    0.500218
  24 H     1.0000    0     1.008    2.911724    4.397174   -2.383544

--------------------------------
INTERNAL COORDINATES (ANGSTROEM)
--------------------------------
 O      0   0   0     0.000000000000     0.00000000     0.00000000
 O      1   0   0     2.253376036340     0.00000000     0.00000000
 N      2   1   0     2.869744177065    85.82980572     0.00000000
 N      1   2   3     5.745477994427   113.87307614   104.30917797
 C      3   2   1     2.457288671255    71.33962916   288.49301793
 C      3   2   1     1.465477725030    58.03671965   326.34967652
 C      5   3   2     1.508234079412   147.82160160    60.34372205
 C      7   5   3     1.401803305928   121.15322823   267.48130560
 C      7   5   3     1.401578607135   121.14299182    85.00775942
 C      2   1   3     1.220148967318    30.21242598   342.32311827
 C      8   7   5     1.392973644073   121.49523989   177.65451326
 C      9   7   5     1.392626764894   121.48962267   182.33463314
 C      4   1   2     1.396054714181    35.63060185   308.38442699
 H      5   3   2     1.095990667229    87.52124751   186.21881923
 H      5   3   2     1.094980357438    87.45455117   293.98415462
 H      6   3   2     1.097672417550   113.97480217   136.71575805
 H      8   7   5     1.087354342371   119.28604197   357.59590674
 H      9   7   5     1.087507384642   119.31248528     2.69151815
 H     11   8   7     1.087073420528   120.14267089   179.62741153
 H     12   9   7     1.087132144986   120.17982553   180.40297081
 H      3   2   1     1.018998425073    96.28967499    74.36722106
 H      3   2   1     1.018741505809   157.10254424   272.07456638
 H      4   1   2     1.013327509678   131.47976223   236.20889475
 H      4   1   2     1.013236735797   116.20342669    43.47023771
 H      1   2   3     0.975300304871    80.80684541   195.78011994

---------------------------
INTERNAL COORDINATES (A.U.)
---------------------------
 O      0   0   0     0.000000000000     0.00000000     0.00000000
 O      1   0   0     4.258263585423     0.00000000     0.00000000
 N      2   1   0     5.423030569069    85.82980572     0.00000000
 N      1   2   3    10.857379917938   113.87307614   104.30917797
 C      3   2   1     4.643602620659    71.33962916   288.49301793
 C      3   2   1     2.769351555668    58.03671965   326.34967652
 C      5   3   2     2.850149355936   147.82160160    60.34372205
 C      7   5   3     2.649024341829   121.15322823   267.48130560
 C      7   5   3     2.648599722648   121.14299182    85.00775942
 C      2   1   3     2.305747390817    30.21242598   342.32311827
 C      8   7   5     2.632338699068   121.49523989   177.65451326
 C      9   7   5     2.631683192418   121.48962267   182.33463314
 C      4   1   2     2.638161077771    35.63060185   308.38442699
 H      5   3   2     2.071122206397    87.52124751   186.21881923
 H      5   3   2     2.069212997580    87.45455117   293.98415462
 H      6   3   2     2.074300253930   113.97480217   136.71575805
 H      8   7   5     2.054801917611   119.28604197   357.59590674
 H      9   7   5     2.055091125590   119.31248528     2.69151815
 H     11   8   7     2.054271052263   120.14267089   179.62741153
 H     12   9   7     2.054382025405   120.17982553   180.40297081
 H      3   2   1     1.925627954285    96.28967499    74.36722106
 H      3   2   1     1.925142447237   157.10254424   272.07456638
 H      4   1   2     1.914911477260   131.47976223   236.20889475
 H      4   1   2     1.914739939485   116.20342669    43.47023771
 H      1   2   3     1.843050474536    80.80684541   195.78011994

---------------------
BASIS SET INFORMATION
---------------------
There are 4 groups of distinct atoms

 Group   1 Type O   : 10s4p1d contracted to 3s2p1d pattern {631/31/1}
 Group   2 Type N   : 10s4p1d contracted to 3s2p1d pattern {631/31/1}
 Group   3 Type C   : 10s4p1d contracted to 3s2p1d pattern {631/31/1}
 Group   4 Type H   : 4s1p contracted to 2s1p pattern {31/1}

Atom   0O    basis set group =>   1
Atom   1O    basis set group =>   1
Atom   2N    basis set group =>   2
Atom   3N    basis set group =>   2
Atom   4C    basis set group =>   3
Atom   5C    basis set group =>   3
Atom   6C    basis set group =>   3
Atom   7C    basis set group =>   3
Atom   8C    basis set group =>   3
Atom   9C    basis set group =>   3
Atom  10C    basis set group =>   3
Atom  11C    basis set group =>   3
Atom  12C    basis set group =>   3
Atom  13H    basis set group =>   4
Atom  14H    basis set group =>   4
Atom  15H    basis set group =>   4
Atom  16H    basis set group =>   4
Atom  17H    basis set group =>   4
Atom  18H    basis set group =>   4
Atom  19H    basis set group =>   4
Atom  20H    basis set group =>   4
Atom  21H    basis set group =>   4
Atom  22H    basis set group =>   4
Atom  23H    basis set group =>   4
Atom  24H    basis set group =>   4
---------------------------------
AUXILIARY/J BASIS SET INFORMATION
---------------------------------
There are 4 groups of distinct atoms

 Group   1 Type O   : 12s5p4d2f1g contracted to 6s4p3d1f1g pattern {711111/2111/211/2/1}
 Group   2 Type N   : 12s5p4d2f1g contracted to 6s4p3d1f1g pattern {711111/2111/211/2/1}
 Group   3 Type C   : 12s5p4d2f1g contracted to 6s4p3d1f1g pattern {711111/2111/211/2/1}
 Group   4 Type H   : 5s2p1d contracted to 3s1p1d pattern {311/2/1}

Atom   0O    basis set group =>   1
Atom   1O    basis set group =>   1
Atom   2N    basis set group =>   2
Atom   3N    basis set group =>   2
Atom   4C    basis set group =>   3
Atom   5C    basis set group =>   3
Atom   6C    basis set group =>   3
Atom   7C    basis set group =>   3
Atom   8C    basis set group =>   3
Atom   9C    basis set group =>   3
Atom  10C    basis set group =>   3
Atom  11C    basis set group =>   3
Atom  12C    basis set group =>   3
Atom  13H    basis set group =>   4
Atom  14H    basis set group =>   4
Atom  15H    basis set group =>   4
Atom  16H    basis set group =>   4
Atom  17H    basis set group =>   4
Atom  18H    basis set group =>   4
Atom  19H    basis set group =>   4
Atom  20H    basis set group =>   4
Atom  21H    basis set group =>   4
Atom  22H    basis set group =>   4
Atom  23H    basis set group =>   4
Atom  24H    basis set group =>   4


           ************************************************************
           *        Program running with 2 parallel MPI-processes     *
           *              working on a common directory               *
           ************************************************************
------------------------------------------------------------------------------
                             ORCA STARTUP CALCULATIONS
                           -- RI-GTO INTEGRALS CHOSEN --
------------------------------------------------------------------------------
------------------------------------------------------------------------------
                   ___                                                        
                  /   \      - P O W E R E D   B Y -                         
                 /     \                                                     
                 |  |  |   _    _      __       _____    __    __             
                 |  |  |  | |  | |    /  \     |  _  \  |  |  /  |          
                  \  \/   | |  | |   /    \    | | | |  |  | /  /          
                 / \  \   | |__| |  /  /\  \   | |_| |  |  |/  /          
                |  |  |   |  __  | /  /__\  \  |    /   |      \           
                |  |  |   | |  | | |   __   |  |    \   |  |\   \          
                \     /   | |  | | |  |  |  |  | |\  \  |  | \   \       
                 \___/    |_|  |_| |__|  |__|  |_| \__\ |__|  \__/        
                                                                              
                      - O R C A' S   B I G   F R I E N D -                    
                                      &                                       
                       - I N T E G R A L  F E E D E R -                       
                                                                              
 v1 FN, 2020, v2 2021, v3 2022-2024                                           
------------------------------------------------------------------------------


----------------------
SHARK INTEGRAL PACKAGE
----------------------

Number of atoms                             ...     25
Number of basis functions                   ...    242
Number of shells                            ...    114
Maximum angular momentum                    ...      2
Integral batch strategy                     ... SHARK/LIBINT Hybrid
RI-J (if used) integral strategy            ... SPLIT-RIJ (Revised 2003 algorithm where possible)
Printlevel                                  ...      1
Contraction scheme used                     ... SEGMENTED contraction
Prescreening option                         ... SCHWARTZ
   Thresh                                   ... 2.500e-11
   Tcut                                     ... 2.500e-12
   Tpresel                                  ... 2.500e-12 
Coulomb Range Separation                    ... NOT USED
Exchange Range Separation                   ... NOT USED
Multipole approximations                    ... NOT USED
Finite Nucleus Model                        ... NOT USED
CABS basis                                  ... NOT available
Auxiliary Coulomb fitting basis             ... AVAILABLE
   # of basis functions in Aux-J            ...    769
   # of shells in Aux-J                     ...    255
   Maximum angular momentum in Aux-J        ...      4
Auxiliary J/K fitting basis                 ... NOT available
Auxiliary Correlation fitting basis         ... NOT available
Auxiliary 'external' fitting basis          ... NOT available

Checking pre-screening integrals            ... done (  0.0 sec) Dimension = 114
   => SHARK Basis and OBASIS are compatible. Storing Pre-screening
Shell pair information
Shell pair cut-off parameter TPreSel        ...   2.5e-12
Total number of shell pairs                 ...      6555
Shell pairs after pre-screening             ...      5415
Total number of primitive shell pairs       ...     32949
Primitive shell pairs kept                  ...     16904
          la=0 lb=0:   1664 shell pairs
          la=1 lb=0:   1982 shell pairs
          la=1 lb=1:    622 shell pairs
          la=2 lb=0:    665 shell pairs
          la=2 lb=1:    406 shell pairs
          la=2 lb=2:     76 shell pairs

Checking whether 4 symmetric matrices of dimension 242 fit in memory
:Max Core in MB      =   3000.00
 MB in use           =     10.73
 MB left             =   2989.27
 MB needed           =      0.90
 Data fit in memory  = YES
Calculating RI/J V-Matrix + Cholesky decomp.... done (  0.0 sec)
Calculating Nuclear repulsion               ... done (  0.0 sec) ENN=    782.613410090778 Eh

Diagonalization of the overlap matrix:
Smallest eigenvalue                        ... 4.264e-04
Time for diagonalization                   ...    0.008 sec
Threshold for overlap eigenvalues          ... 1.000e-07
Number of eigenvalues below threshold      ... 0
Time for construction of square roots      ...    0.003 sec
Total time needed                          ...    0.012 sec

-------------------
DFT GRID GENERATION
-------------------

General Integration Accuracy     IntAcc      ... 4.388
Radial Grid Type                 RadialGrid  ... OptM3 with GC (2021)
Angular Grid (max. ang.)         AngularGrid ... 4 (Lebedev-302)
Angular grid pruning method      GridPruning ... 4 (adaptive)
Weight generation scheme         WeightScheme... mBecke (2022)
Basis function cutoff            BFCut       ... 1.0000e-11
Integration weight cutoff        WCut        ... 1.0000e-14
Partially contracted basis set               ... off
Rotationally invariant grid construction     ... off
Angular grids for H and He will be reduced by one unit

Total number of grid points                  ...   116505
Total number of batches                      ...     1835
Average number of points per batch           ...       63
Average number of grid points per atom       ...     4660

--------------------
COSX GRID GENERATION
--------------------

GRIDX 1
-------
General Integration Accuracy     IntAcc      ... 3.816
Radial Grid Type                 RadialGrid  ... OptM3 with GC (2021)
Angular Grid (max. ang.)         AngularGrid ... 1 (Lebedev-50)
Angular grid pruning method      GridPruning ... 4 (adaptive)
Weight generation scheme         WeightScheme... mBecke (2022)
Basis function cutoff            BFCut       ... 1.0000e-11
Integration weight cutoff        WCut        ... 1.0000e-14
Partially contracted basis set               ... on
Rotationally invariant grid construction     ... off
Angular grids for H and He will be reduced by one unit

Total number of grid points                  ...    14796
Total number of batches                      ...      130
Average number of points per batch           ...      113
Average number of grid points per atom       ...      592
UseSFitting                                  ... on

GRIDX 2
-------
General Integration Accuracy     IntAcc      ... 4.020
Radial Grid Type                 RadialGrid  ... OptM3 with GC (2021)
Angular Grid (max. ang.)         AngularGrid ... 2 (Lebedev-110)
Angular grid pruning method      GridPruning ... 4 (adaptive)
Weight generation scheme         WeightScheme... mBecke (2022)
Basis function cutoff            BFCut       ... 1.0000e-11
Integration weight cutoff        WCut        ... 1.0000e-14
Partially contracted basis set               ... on
Rotationally invariant grid construction     ... off
Angular grids for H and He will be reduced by one unit

Total number of grid points                  ...    32070
Total number of batches                      ...      266
Average number of points per batch           ...      120
Average number of grid points per atom       ...     1283
UseSFitting                                  ... on

GRIDX 3
-------
General Integration Accuracy     IntAcc      ... 4.338
Radial Grid Type                 RadialGrid  ... OptM3 with GC (2021)
Angular Grid (max. ang.)         AngularGrid ... 3 (Lebedev-194)
Angular grid pruning method      GridPruning ... 4 (adaptive)
Weight generation scheme         WeightScheme... mBecke (2022)
Basis function cutoff            BFCut       ... 1.0000e-11
Integration weight cutoff        WCut        ... 1.0000e-14
Partially contracted basis set               ... on
Rotationally invariant grid construction     ... off
Angular grids for H and He will be reduced by one unit

Total number of grid points                  ...    70352
Total number of batches                      ...      563
Average number of points per batch           ...      124
Average number of grid points per atom       ...     2814
UseSFitting                                  ... on
Grids setup in   2.5 sec
Initializing property integral containers    ... done (  0.0 sec)

SHARK setup successfully completed in   2.7 seconds

Maximum memory used throughout the entire STARTUP-calculation: 39.9 MB


           ************************************************************
           *        Program running with 2 parallel MPI-processes     *
           *              working on a common directory               *
           ************************************************************
-------------------------------------------------------------------------------
                                 ORCA GUESS
                   Start orbitals & Density for SCF / CASSCF
-------------------------------------------------------------------------------

------------
SCF SETTINGS
------------
Hamiltonian:
 Density Functional     Method          .... DFT(GTOs)
 Exchange Functional    Exchange        .... B88
   X-Alpha parameter    XAlpha          ....  0.666667
   Becke's b parameter  XBeta           ....  0.004200
 Correlation Functional Correlation     .... LYP
 LDA part of GGA corr.  LDAOpt          .... VWN-5
 Gradients option       PostSCFGGA      .... off
 Hybrid DFT is turned on
   Fraction HF Exchange ScalHFX         ....  0.200000
   Scaling of DF-GGA-X  ScalDFX         ....  0.720000
   Scaling of DF-GGA-C  ScalDFC         ....  0.810000
   Scaling of DF-LDA-C  ScalLDAC        ....  1.000000
   Perturbative correction              ....  0.000000
   NL short-range parameter             ....  4.800000
 RI-approximation to the Coulomb term is turned on
   Number of AuxJ basis functions       .... 769
   RIJ-COSX (HFX calculated with COS-X)).... on


General Settings:
 Integral files         IntName         .... /kaggle/working/Phe-NH2-2/Phe-NH2_InterFrag
 Hartree-Fock type      HFTyp           .... RHF
 Total Charge           Charge          ....    0
 Multiplicity           Mult            ....    1
 Number of Electrons    NEL             ....   96
 Basis Dimension        Dim             ....  242
 Nuclear Repulsion      ENuc            ....    782.6134100908 Eh

Convergence Acceleration:
 AO-DIIS                CNVDIIS         .... on
   Start iteration      DIISMaxIt       ....    12
   Startup error        DIISStart       ....  0.200000
   # of expansion vecs  DIISMaxEq       ....     5
   Bias factor          DIISBfac        ....   1.050
   Max. coefficient     DIISMaxC        ....  10.000
 MO-DIIS                CNVKDIIS        .... off
 Trust-Rad. Augm. Hess. CNVTRAH         .... auto
   Auto Start mean grad. ratio tolernc. ....  1.125000
   Auto Start start iteration           ....    50
   Auto Start num. interpolation iter.  ....    10
   Max. Number of Micro iterations      ....    24
   Max. Number of Macro iterations      .... Maxiter - #DIIS iter
   Number of Davidson start vectors     ....     2
   Converg. threshold    (grad. norm)   ....   1.000e-05
   Grad. Scal. Fac. for Micro threshold ....   0.100
   Minimum threshold for Micro iter.    ....   1.000e-02
   NR start threshold (gradient norm)   ....   1.000e-04
   Initial trust radius                 ....   0.400
   Minimum AH scaling param. (alpha)    ....   1.000
   Maximum AH scaling param. (alpha)    .... 1000.000
   Quad. conv. algorithm                .... NR
   White noise on init. David. guess    .... on
   Maximum white noise                  ....   0.010
   Pseudo random numbers                .... off
   Inactive MOs                         .... canonical
   Orbital update algorithm             .... Taylor
   Preconditioner                       .... Diag
   Full preconditioner red. dimension   ....   250
 SOSCF                 CNVSOSCF           .... on
   Start iteration     SOSCFMaxIt         ....   150
   Startup grad/error  SOSCFStart         ....  0.003300
   Hessian update      SOSCFHessUp        .... L-BFGS
   Autom. constraints  SOSCFAutoConstrain .... off
 Level Shifting         CNVShift        .... on
   Level shift para.    LevelShift      ....    0.2500
   Turn off err/grad.   ShiftErr        ....    0.0010
 Zerner damping         CNVZerner       .... off
 Static damping         CNVDamp         .... on
   Fraction old density DampFac         ....    0.7000
   Max. Damping (<1)    DampMax         ....    0.9800
   Min. Damping (>=0)   DampMin         ....    0.0000
   Turn off err/grad.   DampErr         ....    0.1000

SCF Procedure:
 Maximum # iterations   MaxIter         ....   125
 SCF integral mode      SCFMode         .... Direct
   Integral package                     .... SHARK and LIBINT hybrid scheme
 Reset frequency        DirectResetFreq ....    20
 Integral Threshold     Thresh          ....  2.500e-11 Eh
 Primitive CutOff       TCut            ....  2.500e-12 Eh

Convergence Tolerance:
 Convergence Check Mode ConvCheckMode   .... Total+1el-Energy
 Convergence forced     ConvForced      .... 0
 Energy Change          TolE            ....  1.000e-08 Eh
 1-El. energy change                    ....  1.000e-05 Eh
 Orbital Gradient       TolG            ....  1.000e-05
 Orbital Rotation angle TolX            ....  1.000e-05
 DIIS Error             TolErr          ....  5.000e-07

------------------------------
INITIAL GUESS: MODEL POTENTIAL
------------------------------
Loading Hartree-Fock densities                     ... done
Calculating cut-offs                               ... done
Initializing the effective Hamiltonian             ... done
Setting up the integral package (SHARK)            ... done
Starting the Coulomb interaction                   ... done (   0.2 sec)
Making the grid                                    ... done (   0.4 sec)
Mapping shells                                     ... done
Starting the XC term evaluation                    ... done (   0.2 sec)
  promolecular density results
     # of electrons  =     95.992560188
     EX              =    -79.399059031
     EC              =     -3.263978969
     EX+EC           =    -82.663038000
Transforming the Hamiltonian                       ... done (   0.0 sec)
Diagonalizing the Hamiltonian                      ... done (   0.0 sec)
Back transforming the eigenvectors                 ... done (   0.0 sec)
Now organizing SCF variables                       ... done
                      ------------------
                      INITIAL GUESS DONE (   0.8 sec)
                      ------------------
             **** ENERGY FILE WAS UPDATED (/kaggle/working/Phe-NH2-2/Phe-NH2_InterFrag.en.tmp) ****
Finished Guess after   1.1 sec
Maximum memory used throughout the entire GUESS-calculation: 15.5 MB


           ************************************************************
           *        Program running with 2 parallel MPI-processes     *
           *              working on a common directory               *
           ************************************************************

-------------------------------------------------------------------------------------------
                                      ORCA LEAN-SCF
                              memory conserving SCF solver
-------------------------------------------------------------------------------------------

----------------------------------------D-I-I-S--------------------------------------------
Iteration    Energy (Eh)           Delta-E    RMSDP     MaxDP     DIISErr   Damp  Time(sec)
-------------------------------------------------------------------------------------------
               ***  Starting incremental Fock matrix formation  ***
    1    -609.3571528672441673     0.00e+00  4.17e-03  9.58e-02  2.64e-01  0.700   6.9
    2    -609.5641094851057460    -2.07e-01  2.83e-03  5.30e-02  1.13e-01  0.700   3.5
                               ***Turning on AO-DIIS***
    3    -609.6432242381899869    -7.91e-02  1.11e-03  1.73e-02  4.13e-02  0.700   3.4
    4    -609.6909823493701879    -4.78e-02  1.68e-03  2.40e-02  1.88e-02  0.000   3.3
    5    -609.7959378034993279    -1.05e-01  4.19e-04  9.02e-03  7.50e-03  0.000   3.4
                              *** Initializing SOSCF ***
---------------------------------------S-O-S-C-F--------------------------------------
Iteration    Energy (Eh)           Delta-E    RMSDP     MaxDP     MaxGrad    Time(sec)
--------------------------------------------------------------------------------------
    6    -609.7966260877544755    -6.88e-04  1.30e-04  2.40e-03  2.35e-03     3.1
               *** Restarting incremental Fock matrix formation ***
    7    -609.7966663748316023    -4.03e-05  7.86e-05  1.60e-03  2.89e-04     7.0
    8    -609.7966677243916820    -1.35e-06  2.44e-05  5.14e-04  2.51e-04     4.9
    9    -609.7966703020465502    -2.58e-06  1.70e-05  3.49e-04  1.21e-04     4.3
   10    -609.7966700280005625     2.74e-07  9.39e-06  2.17e-04  1.45e-04     4.1
   11    -609.7966705467661086    -5.19e-07  3.88e-06  7.49e-05  1.17e-05     3.8
   12    -609.7966705432531853     3.51e-09  2.04e-06  4.72e-05  1.62e-05     3.3
                 **** Energy Check signals convergence ****

               *****************************************************
               *                     SUCCESS                       *
               *           SCF CONVERGED AFTER  12 CYCLES          *
               *****************************************************

Recomputing exchange energy using gridx3       ... done (   11.447 sec)
Old exchange energy                            :    -16.141511352 Eh
New exchange energy                            :    -16.141512569 Eh
Exchange energy change after final integration :     -0.000001217 Eh
Total energy after final integration           :   -609.796671781 Eh
             **** ENERGY FILE WAS UPDATED (/kaggle/working/Phe-NH2-2/Phe-NH2_InterFrag.en.tmp) ****

----------------
TOTAL SCF ENERGY
----------------

Total Energy       :       -609.79667178062743 Eh          -16593.41103 eV

Components:
Nuclear Repulsion  :        782.61341009077796 Eh           21295.99356 eV
Electronic Energy  :      -1392.41008065422511 Eh          -37889.40455 eV
One Electron Energy:      -2382.52319342273495 Eh          -64831.75208 eV
Two Electron Energy:        990.11311276850995 Eh           26942.34752 eV

Virial components:
Potential Energy   :      -1215.81445243928101 Eh          -33083.99321 eV
Kinetic Energy     :        606.01778065865358 Eh           16490.58218 eV
Virial Ratio       :          2.00623561097146

DFT components:
N(Alpha)           :       47.999981572371 electrons
N(Beta)            :       47.999981572371 electrons
N(Total)           :       95.999963144743 electrons
E(X)               :      -64.121555479376 Eh       
E(C)               :       -3.850590309302 Eh       
E(XC)              :      -67.972145788678 Eh       

---------------
SCF CONVERGENCE
---------------

  Last Energy change         ...   -3.5129e-09  Tolerance :   1.0000e-08
  Last MAX-Density change    ...    4.7246e-05  Tolerance :   1.0000e-07
  Last RMS-Density change    ...    2.0427e-06  Tolerance :   5.0000e-09
  Last DIIS Error            ...    2.3490e-03  Tolerance :   5.0000e-07
  Last Orbital Gradient      ...    1.6152e-05  Tolerance :   1.0000e-05
  Last Orbital Rotation      ...    1.8214e-05  Tolerance :   1.0000e-05


----------------
ORBITAL ENERGIES
----------------

  NO   OCC          E(Eh)            E(eV) 
   0   2.0000     -19.182794      -521.9904 
   1   2.0000     -19.120382      -520.2921 
   2   2.0000     -14.333149      -390.0248 
   3   2.0000     -14.311556      -389.4372 
   4   2.0000     -10.301097      -280.3071 
   5   2.0000     -10.216497      -278.0050 
   6   2.0000     -10.216335      -278.0006 
   7   2.0000     -10.181061      -277.0408 
   8   2.0000     -10.175861      -276.8993 
   9   2.0000     -10.174019      -276.8491 
  10   2.0000     -10.173462      -276.8340 
  11   2.0000     -10.172084      -276.7965 
  12   2.0000     -10.171284      -276.7747 
  13   2.0000      -1.092413       -29.7261 
  14   2.0000      -0.996588       -27.1185 
  15   2.0000      -0.913110       -24.8470 
  16   2.0000      -0.889204       -24.1965 
  17   2.0000      -0.832895       -22.6642 
  18   2.0000      -0.763943       -20.7880 
  19   2.0000      -0.734483       -19.9863 
  20   2.0000      -0.705941       -19.2096 
  21   2.0000      -0.657375       -17.8881 
  22   2.0000      -0.606460       -16.5026 
  23   2.0000      -0.586747       -15.9662 
  24   2.0000      -0.561851       -15.2887 
  25   2.0000      -0.511510       -13.9189 
  26   2.0000      -0.508896       -13.8478 
  27   2.0000      -0.494601       -13.4588 
  28   2.0000      -0.480831       -13.0841 
  29   2.0000      -0.460474       -12.5301 
  30   2.0000      -0.458157       -12.4671 
  31   2.0000      -0.440444       -11.9851 
  32   2.0000      -0.427304       -11.6275 
  33   2.0000      -0.417943       -11.3728 
  34   2.0000      -0.410232       -11.1630 
  35   2.0000      -0.408167       -11.1068 
  36   2.0000      -0.388111       -10.5610 
  37   2.0000      -0.375294       -10.2123 
  38   2.0000      -0.359294        -9.7769 
  39   2.0000      -0.357675        -9.7328 
  40   2.0000      -0.339271        -9.2320 
  41   2.0000      -0.327883        -8.9221 
  42   2.0000      -0.304962        -8.2984 
  43   2.0000      -0.293499        -7.9865 
  44   2.0000      -0.258617        -7.0373 
  45   2.0000      -0.242582        -6.6010 
  46   2.0000      -0.238273        -6.4837 
  47   2.0000      -0.195013        -5.3066 
  48   0.0000       0.004643         0.1263 
  49   0.0000       0.016419         0.4468 
  50   0.0000       0.021758         0.5921 
  51   0.0000       0.082182         2.2363 
  52   0.0000       0.087050         2.3687 
  53   0.0000       0.087866         2.3910 
  54   0.0000       0.107330         2.9206 
  55   0.0000       0.123388         3.3576 
  56   0.0000       0.138391         3.7658 
  57   0.0000       0.152972         4.1626 
  58   0.0000       0.160338         4.3630 
  59   0.0000       0.170055         4.6274 
  60   0.0000       0.177596         4.8326 
  61   0.0000       0.194854         5.3023 
  62   0.0000       0.199868         5.4387 
  63   0.0000       0.204225         5.5572 
  64   0.0000       0.227118         6.1802 
  65   0.0000       0.248983         6.7752 
  66   0.0000       0.251767         6.8509 
  67   0.0000       0.265666         7.2291 
  68   0.0000       0.296093         8.0571 
  69   0.0000       0.333843         9.0843 
  70   0.0000       0.336892         9.1673 
  71   0.0000       0.345431         9.3996 
  72   0.0000       0.352838         9.6012 
  73   0.0000       0.375236        10.2107 
  74   0.0000       0.379775        10.3342 
  75   0.0000       0.486435        13.2366 
  76   0.0000       0.511217        13.9109 
  77   0.0000       0.523627        14.2486 
  78   0.0000       0.537583        14.6284 
  79   0.0000       0.541462        14.7339 
  80   0.0000       0.554668        15.0933 
  81   0.0000       0.562085        15.2951 
  82   0.0000       0.581867        15.8334 
  83   0.0000       0.594372        16.1737 
  84   0.0000       0.603550        16.4234 
  85   0.0000       0.605485        16.4761 
  86   0.0000       0.614083        16.7100 
  87   0.0000       0.621245        16.9049 
  88   0.0000       0.640299        17.4234 
  89   0.0000       0.649137        17.6639 
  90   0.0000       0.655336        17.8326 
  91   0.0000       0.661865        18.0103 
  92   0.0000       0.672965        18.3123 
  93   0.0000       0.694023        18.8853 
  94   0.0000       0.706599        19.2275 
  95   0.0000       0.715025        19.4568 
  96   0.0000       0.730941        19.8899 
  97   0.0000       0.740833        20.1591 
  98   0.0000       0.759577        20.6692 
  99   0.0000       0.788022        21.4432 
 100   0.0000       0.797853        21.7107 
 101   0.0000       0.806870        21.9561 
 102   0.0000       0.818042        22.2600 
 103   0.0000       0.825262        22.4565 
 104   0.0000       0.830211        22.5912 
 105   0.0000       0.842576        22.9277 
 106   0.0000       0.860243        23.4084 
 107   0.0000       0.860327        23.4107 
 108   0.0000       0.874465        23.7954 
 109   0.0000       0.879053        23.9203 
 110   0.0000       0.885403        24.0930 
 111   0.0000       0.898752        24.4563 
 112   0.0000       0.912106        24.8197 
 113   0.0000       0.916272        24.9330 
 114   0.0000       0.937268        25.5044 
 115   0.0000       0.958254        26.0754 
 116   0.0000       0.965271        26.2663 
 117   0.0000       0.973823        26.4991 
 118   0.0000       0.997803        27.1516 
 119   0.0000       1.007931        27.4272 
 120   0.0000       1.018197        27.7065 
 121   0.0000       1.042045        28.3555 
 122   0.0000       1.048017        28.5180 
 123   0.0000       1.054817        28.7030 
 124   0.0000       1.090205        29.6660 
 125   0.0000       1.095521        29.8106 
 126   0.0000       1.122200        30.5366 
 127   0.0000       1.129757        30.7423 
 128   0.0000       1.178119        32.0583 
 129   0.0000       1.189592        32.3704 
 130   0.0000       1.202690        32.7269 
 131   0.0000       1.222618        33.2691 
 132   0.0000       1.282160        34.8894 
 133   0.0000       1.307494        35.5787 
 134   0.0000       1.323808        36.0227 
 135   0.0000       1.363089        37.0916 
 136   0.0000       1.388512        37.7833 
 137   0.0000       1.401714        38.1426 
 138   0.0000       1.411436        38.4071 
 139   0.0000       1.415130        38.5077 
 140   0.0000       1.435289        39.0562 
 141   0.0000       1.464553        39.8525 
 142   0.0000       1.482263        40.3344 
 143   0.0000       1.492674        40.6177 
 144   0.0000       1.517253        41.2865 
 145   0.0000       1.542407        41.9710 
 146   0.0000       1.586371        43.1673 
 147   0.0000       1.609622        43.8000 
 148   0.0000       1.681339        45.7516 
 149   0.0000       1.715576        46.6832 
 150   0.0000       1.754230        47.7350 
 151   0.0000       1.762609        47.9630 
 152   0.0000       1.763546        47.9885 
 153   0.0000       1.778708        48.4011 
 154   0.0000       1.788455        48.6663 
 155   0.0000       1.799662        48.9713 
 156   0.0000       1.822864        49.6027 
 157   0.0000       1.829043        49.7708 
 158   0.0000       1.846058        50.2338 
 159   0.0000       1.878826        51.1254 
 160   0.0000       1.884741        51.2864 
 161   0.0000       1.900214        51.7074 
 162   0.0000       1.913895        52.0797 
 163   0.0000       1.918538        52.2061 
 164   0.0000       1.940592        52.8062 
 165   0.0000       1.950378        53.0725 
 166   0.0000       1.972804        53.6827 
 167   0.0000       1.977598        53.8132 
 168   0.0000       1.980260        53.8856 
 169   0.0000       2.009729        54.6875 
 170   0.0000       2.014323        54.8125 
 171   0.0000       2.033705        55.3399 
 172   0.0000       2.046893        55.6988 
 173   0.0000       2.097336        57.0714 
 174   0.0000       2.114433        57.5366 
 175   0.0000       2.121865        57.7389 
 176   0.0000       2.160671        58.7949 
 177   0.0000       2.176804        59.2338 
 178   0.0000       2.186598        59.5004 
 179   0.0000       2.211452        60.1767 
 180   0.0000       2.249773        61.2194 
 181   0.0000       2.252620        61.2969 
 182   0.0000       2.270487        61.7831 
 183   0.0000       2.285651        62.1957 
 184   0.0000       2.295780        62.4713 
 185   0.0000       2.311758        62.9061 
 186   0.0000       2.317026        63.0495 
 187   0.0000       2.334797        63.5331 
 188   0.0000       2.360998        64.2460 
 189   0.0000       2.363977        64.3271 
 190   0.0000       2.370895        64.5153 
 191   0.0000       2.385665        64.9172 
 192   0.0000       2.415914        65.7404 
 193   0.0000       2.423222        65.9392 
 194   0.0000       2.442649        66.4679 
 195   0.0000       2.447650        66.6040 
 196   0.0000       2.469569        67.2004 
 197   0.0000       2.483346        67.5753 
 198   0.0000       2.494733        67.8851 
 199   0.0000       2.507856        68.2422 
 200   0.0000       2.544995        69.2528 
 201   0.0000       2.555684        69.5437 
 202   0.0000       2.568566        69.8942 
 203   0.0000       2.586953        70.3946 
 204   0.0000       2.598456        70.7076 
 205   0.0000       2.610323        71.0305 
 206   0.0000       2.624996        71.4298 
 207   0.0000       2.668141        72.6038 
 208   0.0000       2.671042        72.6828 
 209   0.0000       2.679482        72.9124 
 210   0.0000       2.721446        74.0543 
 211   0.0000       2.728131        74.2362 
 212   0.0000       2.754187        74.9452 
 213   0.0000       2.790729        75.9396 
 214   0.0000       2.802409        76.2574 
 215   0.0000       2.814559        76.5880 
 216   0.0000       2.833308        77.0982 
 217   0.0000       2.866870        78.0115 
 218   0.0000       2.876867        78.2835 
 219   0.0000       2.894982        78.7765 
 220   0.0000       2.906641        79.0937 
 221   0.0000       2.946713        80.1841 
 222   0.0000       2.972165        80.8767 
 223   0.0000       2.991999        81.4164 
 224   0.0000       3.064197        83.3810 
 225   0.0000       3.079676        83.8023 
 226   0.0000       3.093730        84.1847 
 227   0.0000       3.170528        86.2745 
 228   0.0000       3.214132        87.4610 
 229   0.0000       3.257177        88.6323 
 230   0.0000       3.294598        89.6506 
 231   0.0000       3.309044        90.0437 
 232   0.0000       3.314160        90.1829 
 233   0.0000       3.332431        90.6801 
 234   0.0000       3.382313        92.0374 
 235   0.0000       3.406690        92.7007 
 236   0.0000       3.459374        94.1344 
 237   0.0000       3.502697        95.3132 
 238   0.0000       3.510354        95.5216 
 239   0.0000       3.537071        96.2486 
 240   0.0000       3.555495        96.7499 
 241   0.0000       3.852044       104.8194 

                    ********************************
                    * MULLIKEN POPULATION ANALYSIS *
                    ********************************

-----------------------
MULLIKEN ATOMIC CHARGES
-----------------------
   0 O :   -0.466274
   1 O :   -0.431657
   2 N :   -0.555513
   3 N :   -0.610435
   4 C :   -0.247429
   5 C :    0.000310
   6 C :    0.106895
   7 C :   -0.132463
   8 C :   -0.122162
   9 C :    0.529850
  10 C :   -0.115283
  11 C :   -0.111440
  12 C :    0.237489
  13 H :    0.092798
  14 H :    0.131441
  15 H :    0.096030
  16 H :    0.093625
  17 H :    0.070473
  18 H :    0.070567
  19 H :    0.068975
  20 H :    0.236427
  21 H :    0.232780
  22 H :    0.251444
  23 H :    0.251912
  24 H :    0.321639
Sum of atomic charges:    0.0000000

--------------------------------
MULLIKEN REDUCED ORBITAL CHARGES
--------------------------------
  0 O s       :     3.823370  s :     3.823370
      pz      :     1.599835  p :     4.619540
      px      :     1.694281
      py      :     1.325424
      dz2     :     0.007026  d :     0.023364
      dxz     :     0.005526
      dyz     :     0.003453
      dx2y2   :     0.006101
      dxy     :     0.001258

  1 O s       :     3.859066  s :     3.859066
      pz      :     1.461036  p :     4.544809
      px      :     1.438971
      py      :     1.644802
      dz2     :     0.007396  d :     0.027782
      dxz     :     0.005601
      dyz     :     0.006348
      dx2y2   :     0.003922
      dxy     :     0.004516

  2 N s       :     3.630238  s :     3.630238
      pz      :     1.563020  p :     3.894423
      px      :     1.130977
      py      :     1.200426
      dz2     :     0.006449  d :     0.030853
      dxz     :     0.009748
      dyz     :     0.001631
      dx2y2   :     0.010580
      dxy     :     0.002445

  3 N s       :     3.582592  s :     3.582592
      pz      :     1.517696  p :     4.000263
      px      :     1.129713
      py      :     1.352854
      dz2     :     0.004098  d :     0.027580
      dxz     :     0.006243
      dyz     :     0.004355
      dx2y2   :     0.002961
      dxy     :     0.009924

  4 C s       :     3.239865  s :     3.239865
      pz      :     1.003194  p :     2.969590
      px      :     0.945540
      py      :     1.020856
      dz2     :     0.009046  d :     0.037975
      dxz     :     0.009104
      dyz     :     0.003464
      dx2y2   :     0.011134
      dxy     :     0.005226

  5 C s       :     3.175336  s :     3.175336
      pz      :     0.990725  p :     2.767108
      px      :     0.845048
      py      :     0.931335
      dz2     :     0.012587  d :     0.057245
      dxz     :     0.014807
      dyz     :     0.004771
      dx2y2   :     0.015795
      dxy     :     0.009285

  6 C s       :     3.125901  s :     3.125901
      pz      :     0.940108  p :     2.727071
      px      :     0.875537
      py      :     0.911427
      dz2     :     0.006428  d :     0.040132
      dxz     :     0.007642
      dyz     :     0.005931
      dx2y2   :     0.010169
      dxy     :     0.009962

  7 C s       :     3.189388  s :     3.189388
      pz      :     0.989213  p :     2.907408
      px      :     0.955840
      py      :     0.962355
      dz2     :     0.003606  d :     0.035667
      dxz     :     0.007699
      dyz     :     0.006189
      dx2y2   :     0.008893
      dxy     :     0.009281

  8 C s       :     3.186522  s :     3.186522
      pz      :     0.969997  p :     2.899960
      px      :     0.954141
      py      :     0.975822
      dz2     :     0.005246  d :     0.035680
      dxz     :     0.007455
      dyz     :     0.005379
      dx2y2   :     0.008878
      dxy     :     0.008722

  9 C s       :     2.990352  s :     2.990352
      pz      :     0.716722  p :     2.357635
      px      :     0.742387
      py      :     0.898525
      dz2     :     0.032880  d :     0.122164
      dxz     :     0.023190
      dyz     :     0.028139
      dx2y2   :     0.022279
      dxy     :     0.015676

 10 C s       :     3.154949  s :     3.154949
      pz      :     1.001077  p :     2.927270
      px      :     0.957296
      py      :     0.968897
      dz2     :     0.004553  d :     0.033064
      dxz     :     0.007115
      dyz     :     0.005014
      dx2y2   :     0.007641
      dxy     :     0.008741

 11 C s       :     3.153159  s :     3.153159
      pz      :     1.010549  p :     2.925210
      px      :     0.960649
      py      :     0.954012
      dz2     :     0.003328  d :     0.033070
      dxz     :     0.007270
      dyz     :     0.005529
      dx2y2   :     0.008168
      dxy     :     0.008776

 12 C s       :     3.074322  s :     3.074322
      pz      :     0.919690  p :     2.629884
      px      :     0.808950
      py      :     0.901244
      dz2     :     0.008367  d :     0.058306
      dxz     :     0.012341
      dyz     :     0.008473
      dx2y2   :     0.014863
      dxy     :     0.014262

 13 H s       :     0.895639  s :     0.895639
      pz      :     0.002385  p :     0.011562
      px      :     0.002260
      py      :     0.006917

 14 H s       :     0.857241  s :     0.857241
      pz      :     0.006012  p :     0.011318
      px      :     0.002665
      py      :     0.002641

 15 H s       :     0.893135  s :     0.893135
      pz      :     0.006250  p :     0.010835
      px      :     0.002353
      py      :     0.002232

 16 H s       :     0.894050  s :     0.894050
      pz      :     0.004626  p :     0.012326
      px      :     0.004096
      py      :     0.003603

 17 H s       :     0.917254  s :     0.917254
      pz      :     0.003452  p :     0.012273
      px      :     0.002610
      py      :     0.006211

 18 H s       :     0.917027  s :     0.917027
      pz      :     0.003611  p :     0.012406
      px      :     0.002507
      py      :     0.006289

 19 H s       :     0.918604  s :     0.918604
      pz      :     0.004838  p :     0.012421
      px      :     0.003897
      py      :     0.003686

 20 H s       :     0.739836  s :     0.739836
      pz      :     0.009867  p :     0.023737
      px      :     0.008370
      py      :     0.005500

 21 H s       :     0.743372  s :     0.743372
      pz      :     0.007196  p :     0.023848
      px      :     0.004551
      py      :     0.012101

 22 H s       :     0.724432  s :     0.724432
      pz      :     0.007715  p :     0.024123
      px      :     0.007668
      py      :     0.008740

 23 H s       :     0.723961  s :     0.723961
      pz      :     0.009673  p :     0.024126
      px      :     0.005305
      py      :     0.009149

 24 H s       :     0.640883  s :     0.640883
      pz      :     0.007474  p :     0.037477
      px      :     0.008223
      py      :     0.021780


------------------------
MULLIKEN OVERLAP CHARGES
------------------------
B(  0-O ,  1-O ) :  -0.1664 B(  0-O ,  5-C ) :  -0.1596 B(  0-O ,  9-C ) :   0.5645 
B(  0-O , 24-H ) :   0.5454 B(  1-O ,  5-C ) :  -0.1667 B(  1-O ,  9-C ) :   1.2426 
B(  2-N ,  4-C ) :  -0.0836 B(  2-N ,  5-C ) :   0.5950 B(  2-N ,  9-C ) :  -0.0914 
B(  2-N , 15-H ) :  -0.0922 B(  2-N , 20-H ) :   0.6649 B(  2-N , 21-H ) :   0.6653 
B(  3-N , 10-C ) :  -0.1338 B(  3-N , 11-C ) :  -0.1331 B(  3-N , 12-C ) :   0.6462 
B(  3-N , 22-H ) :   0.6890 B(  3-N , 23-H ) :   0.6892 B(  4-C ,  5-C ) :   0.6490 
B(  4-C ,  6-C ) :   0.6628 B(  4-C ,  7-C ) :  -0.1022 B(  4-C ,  8-C ) :  -0.1133 
B(  4-C , 13-H ) :   0.7330 B(  4-C , 14-H ) :   0.7304 B(  4-C , 15-H ) :  -0.0968 
B(  5-C ,  6-C ) :  -0.0723 B(  5-C ,  9-C ) :   0.5373 B(  5-C , 13-H ) :  -0.0840 
B(  5-C , 14-H ) :  -0.0737 B(  5-C , 15-H ) :   0.7467 B(  5-C , 20-H ) :  -0.0677 
B(  5-C , 21-H ) :  -0.0688 B(  6-C ,  7-C ) :   1.0936 B(  6-C ,  8-C ) :   1.0912 
B(  6-C , 10-C ) :  -0.0700 B(  6-C , 11-C ) :  -0.0617 B(  6-C , 12-C ) :  -0.0594 
B(  6-C , 13-H ) :  -0.0562 B(  6-C , 14-H ) :  -0.0504 B(  6-C , 16-H ) :  -0.0829 
B(  6-C , 17-H ) :  -0.0919 B(  7-C ,  8-C ) :  -0.0582 B(  7-C , 10-C ) :   1.0282 
B(  7-C , 11-C ) :  -0.0975 B(  7-C , 16-H ) :   0.7203 B(  7-C , 18-H ) :  -0.0651 
B(  8-C , 10-C ) :  -0.0967 B(  8-C , 11-C ) :   1.0434 B(  8-C , 17-H ) :   0.7181 
B(  8-C , 19-H ) :  -0.0673 B(  9-C , 15-H ) :  -0.1108 B( 10-C , 11-C ) :  -0.0875 
B( 10-C , 12-C ) :   1.0843 B( 10-C , 16-H ) :  -0.0744 B( 10-C , 18-H ) :   0.7116 
B( 11-C , 12-C ) :   1.0832 B( 11-C , 17-H ) :  -0.0786 B( 11-C , 19-H ) :   0.7116 
B( 12-C , 18-H ) :  -0.0920 B( 12-C , 19-H ) :  -0.0914 B( 12-C , 22-H ) :  -0.0528 
B( 12-C , 23-H ) :  -0.0526 B( 13-H , 14-H ) :  -0.0657 B( 20-H , 21-H ) :  -0.0655 
B( 22-H , 23-H ) :  -0.0652 


                     *******************************
                     * LOEWDIN POPULATION ANALYSIS *
                     *******************************

----------------------
LOEWDIN ATOMIC CHARGES
----------------------
   0 O :   -0.149238
   1 O :   -0.234524
   2 N :   -0.255973
   3 N :   -0.196106
   4 C :   -0.106432
   5 C :   -0.038352
   6 C :   -0.045703
   7 C :   -0.066562
   8 C :   -0.066535
   9 C :    0.142666
  10 C :   -0.110576
  11 C :   -0.109603
  12 C :    0.032290
  13 H :    0.069461
  14 H :    0.085437
  15 H :    0.058058
  16 H :    0.076539
  17 H :    0.068039
  18 H :    0.067709
  19 H :    0.067155
  20 H :    0.127135
  21 H :    0.124177
  22 H :    0.137524
  23 H :    0.137722
  24 H :    0.185692

-------------------------------
LOEWDIN REDUCED ORBITAL CHARGES
-------------------------------
  0 O s       :     3.476919  s :     3.476919
      pz      :     1.607395  p :     4.622801
      px      :     1.678813
      py      :     1.336594
      dz2     :     0.012826  d :     0.049518
      dxz     :     0.011297
      dyz     :     0.008777
      dx2y2   :     0.012837
      dxy     :     0.003780

  1 O s       :     3.562343  s :     3.562343
      pz      :     1.506060  p :     4.616801
      px      :     1.446408
      py      :     1.664332
      dz2     :     0.011934  d :     0.055381
      dxz     :     0.012097
      dyz     :     0.015656
      dx2y2   :     0.006865
      dxy     :     0.008828

  2 N s       :     3.218875  s :     3.218875
      pz      :     1.567321  p :     3.978271
      px      :     1.188486
      py      :     1.222464
      dz2     :     0.009510  d :     0.058827
      dxz     :     0.017609
      dyz     :     0.001941
      dx2y2   :     0.022225
      dxy     :     0.007540

  3 N s       :     3.138459  s :     3.138459
      pz      :     1.496170  p :     3.999664
      px      :     1.155514
      py      :     1.347979
      dz2     :     0.006428  d :     0.057984
      dxz     :     0.013358
      dyz     :     0.007785
      dx2y2   :     0.008673
      dxy     :     0.021739

  4 C s       :     2.893969  s :     2.893969
      pz      :     1.055212  p :     3.129647
      px      :     1.014070
      py      :     1.060365
      dz2     :     0.018491  d :     0.082816
      dxz     :     0.021350
      dyz     :     0.007043
      dx2y2   :     0.024225
      dxy     :     0.011707

  5 C s       :     2.883720  s :     2.883720
      pz      :     1.060489  p :     3.027379
      px      :     0.955793
      py      :     1.011097
      dz2     :     0.026921  d :     0.127253
      dxz     :     0.033210
      dyz     :     0.009858
      dx2y2   :     0.037292
      dxy     :     0.019972

  6 C s       :     2.869881  s :     2.869881
      pz      :     1.022228  p :     3.075674
      px      :     1.012675
      py      :     1.040771
      dz2     :     0.014462  d :     0.100148
      dxz     :     0.018220
      dyz     :     0.015983
      dx2y2   :     0.026090
      dxy     :     0.025393

  7 C s       :     2.896707  s :     2.896707
      pz      :     1.008569  p :     3.084402
      px      :     1.045620
      py      :     1.030213
      dz2     :     0.008285  d :     0.085453
      dxz     :     0.017076
      dyz     :     0.013346
      dx2y2   :     0.022603
      dxy     :     0.024142

  8 C s       :     2.895504  s :     2.895504
      pz      :     1.006813  p :     3.085284
      px      :     1.047519
      py      :     1.030952
      dz2     :     0.011580  d :     0.085748
      dxz     :     0.018967
      dyz     :     0.011117
      dx2y2   :     0.022451
      dxy     :     0.021633

  9 C s       :     2.855848  s :     2.855848
      pz      :     0.886864  p :     2.715645
      px      :     0.815794
      py      :     1.012987
      dz2     :     0.076262  d :     0.285841
      dxz     :     0.058241
      dyz     :     0.065047
      dx2y2   :     0.051584
      dxy     :     0.034708

 10 C s       :     2.893074  s :     2.893074
      pz      :     1.040036  p :     3.136559
      px      :     1.053845
      py      :     1.042678
      dz2     :     0.010119  d :     0.080943
      dxz     :     0.018441
      dyz     :     0.010622
      dx2y2   :     0.019841
      dxy     :     0.021920

 11 C s       :     2.892919  s :     2.892919
      pz      :     1.043407  p :     3.135767
      px      :     1.055589
      py      :     1.036770
      dz2     :     0.007600  d :     0.080917
      dxz     :     0.016339
      dyz     :     0.012209
      dx2y2   :     0.021432
      dxy     :     0.023337

 12 C s       :     2.854478  s :     2.854478
      pz      :     0.989900  p :     2.973408
      px      :     0.958480
      py      :     1.025029
      dz2     :     0.018792  d :     0.139824
      dxz     :     0.028849
      dyz     :     0.020400
      dx2y2   :     0.036651
      dxy     :     0.035131

 13 H s       :     0.892010  s :     0.892010
      pz      :     0.006950  p :     0.038528
      px      :     0.006611
      py      :     0.024967

 14 H s       :     0.874787  s :     0.874787
      pz      :     0.022946  p :     0.039775
      px      :     0.008518
      py      :     0.008312

 15 H s       :     0.901569  s :     0.901569
      pz      :     0.023252  p :     0.040373
      px      :     0.008884
      py      :     0.008237

 16 H s       :     0.883172  s :     0.883172
      pz      :     0.015169  p :     0.040288
      px      :     0.013336
      py      :     0.011784

 17 H s       :     0.892384  s :     0.892384
      pz      :     0.010739  p :     0.039577
      px      :     0.007999
      py      :     0.020838

 18 H s       :     0.891961  s :     0.891961
      pz      :     0.011470  p :     0.040330
      px      :     0.007960
      py      :     0.020900

 19 H s       :     0.892566  s :     0.892566
      pz      :     0.015412  p :     0.040278
      px      :     0.012811
      py      :     0.012056

 20 H s       :     0.796125  s :     0.796125
      pz      :     0.035915  p :     0.076739
      px      :     0.026490
      py      :     0.014334

 21 H s       :     0.798534  s :     0.798534
      pz      :     0.020825  p :     0.077290
      px      :     0.012556
      py      :     0.043909

 22 H s       :     0.783694  s :     0.783694
      pz      :     0.023051  p :     0.078782
      px      :     0.025102
      py      :     0.030629

 23 H s       :     0.783462  s :     0.783462
      pz      :     0.034318  p :     0.078816
      px      :     0.015730
      py      :     0.028768

 24 H s       :     0.700685  s :     0.700685
      pz      :     0.021887  p :     0.113623
      px      :     0.023813
      py      :     0.067923


---------------------------------
LOEWDIN BOND ORDERS (THRESH 0.050000)
---------------------------------
B(  0-O ,  1-O ) :   0.2079 B(  0-O ,  5-C ) :   0.0651 B(  0-O ,  9-C ) :   1.3960 
B(  0-O , 24-H ) :   0.9853 B(  1-O ,  5-C ) :   0.0842 B(  1-O ,  9-C ) :   2.2154 
B(  2-N ,  4-C ) :   0.0517 B(  2-N ,  5-C ) :   1.1420 B(  2-N ,  9-C ) :   0.0558 
B(  2-N , 20-H ) :   0.9870 B(  2-N , 21-H ) :   0.9851 B(  3-N , 10-C ) :   0.0958 
B(  3-N , 11-C ) :   0.0953 B(  3-N , 12-C ) :   1.2660 B(  3-N , 22-H ) :   0.9752 
B(  3-N , 23-H ) :   0.9751 B(  4-C ,  5-C ) :   0.9957 B(  4-C ,  6-C ) :   1.0401 
B(  4-C ,  7-C ) :   0.0610 B(  4-C ,  8-C ) :   0.0604 B(  4-C ,  9-C ) :   0.0533 
B(  4-C , 13-H ) :   0.9215 B(  4-C , 14-H ) :   0.9232 B(  5-C ,  9-C ) :   0.9781 
B(  5-C , 15-H ) :   0.9045 B(  6-C ,  7-C ) :   1.4240 B(  6-C ,  8-C ) :   1.4247 
B(  6-C , 10-C ) :   0.0751 B(  6-C , 11-C ) :   0.0756 B(  6-C , 12-C ) :   0.0908 
B(  7-C ,  8-C ) :   0.0717 B(  7-C , 10-C ) :   1.5001 B(  7-C , 11-C ) :   0.1047 
B(  7-C , 12-C ) :   0.0743 B(  7-C , 16-H ) :   0.9193 B(  8-C , 10-C ) :   0.1053 
B(  8-C , 11-C ) :   1.5027 B(  8-C , 12-C ) :   0.0740 B(  8-C , 17-H ) :   0.9222 
B(  9-C , 24-H ) :   0.0570 B( 10-C , 11-C ) :   0.0716 B( 10-C , 12-C ) :   1.3850 
B( 10-C , 18-H ) :   0.9231 B( 11-C , 12-C ) :   1.3824 B( 11-C , 19-H ) :   0.9232 


------------------------------------------
LOEWDIN REDUCED ORBITAL POPULATIONS PER MO
-------------------------------------------
THRESHOLD FOR PRINTING IS 0.1%%
                      0         1         2         3         4         5   
                 -19.18279 -19.12038 -14.33315 -14.31156 -10.30110 -10.21650
                   2.00000   2.00000   2.00000   2.00000   2.00000   2.00000
                  --------  --------  --------  --------  --------  --------
 0 O  s              99.9       0.0       0.0       0.0       0.0       0.0
 0 O  pz              0.0       0.0       0.0       0.0       0.1       0.0
 1 O  s               0.0      99.8       0.0       0.0       0.1       0.0
 1 O  pz              0.0       0.0       0.0       0.0       0.2       0.0
 1 O  py              0.0       0.0       0.0       0.0       0.1       0.0
 2 N  s               0.0       0.0       0.0      99.7       0.0       0.0
 2 N  px              0.0       0.0       0.0       0.0       0.0       0.1
 3 N  s               0.0       0.0      99.7       0.0       0.0       0.0
 5 C  s               0.0       0.0       0.0       0.0       0.0      99.4
 5 C  py              0.0       0.0       0.0       0.0       0.1       0.0
 9 C  s               0.0       0.0       0.0       0.0      98.9       0.0
 9 C  py              0.0       0.0       0.0       0.0       0.0       0.2

                      6         7         8         9        10        11   
                 -10.21634 -10.18106 -10.17586 -10.17402 -10.17346 -10.17208
                   2.00000   2.00000   2.00000   2.00000   2.00000   2.00000
                  --------  --------  --------  --------  --------  --------
 3 N  px              0.2       0.0       0.0       0.0       0.0       0.0
 4 C  s               0.0      99.5       0.0       0.0       0.0       0.0
 6 C  s               0.0       0.0       0.9      17.4      81.1       0.0
 6 C  px              0.0       0.1       0.1       0.0       0.0       0.0
 6 C  py              0.0       0.0       0.0       0.1       0.0       0.0
 7 C  s               0.0       0.0       0.0      81.2      17.5       0.0
 7 C  py              0.0       0.0       0.0       0.0       0.1       0.0
 8 C  s               0.0       0.0      98.2       0.2       0.7       0.4
 8 C  px              0.0       0.0       0.0       0.0       0.1       0.2
10 C  s               0.0       0.0       0.0       0.6       0.2       0.0
10 C  px              0.1       0.0       0.0       0.2       0.0       0.0
11 C  s               0.0       0.0       0.4       0.0       0.0      99.0
11 C  px              0.0       0.0       0.2       0.0       0.0       0.0
11 C  py              0.1       0.0       0.0       0.0       0.0       0.0
12 C  s              99.3       0.0       0.0       0.0       0.0       0.0
12 C  py              0.0       0.0       0.0       0.0       0.0       0.1

                     12        13        14        15        16        17   
                 -10.17128  -1.09241  -0.99659  -0.91311  -0.88920  -0.83290
                   2.00000   2.00000   2.00000   2.00000   2.00000   2.00000
                  --------  --------  --------  --------  --------  --------
 0 O  s               0.0      42.0      18.2       0.0       0.1       0.0
 0 O  pz              0.0       2.1       0.2       0.0       0.0       0.0
 0 O  px              0.0       0.8       0.1       0.0       0.0       0.0
 0 O  py              0.0       0.1       0.2       0.0       0.2       0.0
 1 O  s               0.0      13.3      41.6       0.0       1.0       0.0
 1 O  pz              0.0       1.6       1.5       0.0       0.0       0.0
 1 O  px              0.0       0.6       0.6       0.0       0.0       0.0
 1 O  py              0.0       0.5       1.3       0.0       0.0       0.0
 1 O  dyz             0.0       0.0       0.1       0.0       0.0       0.0
 2 N  s               0.0       0.1       0.2       0.0      38.6       1.7
 2 N  pz              0.0       0.0       0.0       0.0       1.2       0.1
 2 N  px              0.0       0.0       0.0       0.0       1.4       0.0
 3 N  s               0.0       0.0       0.0      40.4       0.1       5.0
 3 N  pz              0.0       0.0       0.0       0.7       0.0       0.1
 3 N  px              0.0       0.0       0.0       0.7       0.0       0.4
 3 N  py              0.0       0.0       0.0       0.7       0.0       0.0
 4 C  s               0.0       0.1       0.0       0.1       3.4       3.9
 4 C  pz              0.0       0.0       0.0       0.0       0.7       0.1
 4 C  px              0.0       0.0       0.0       0.0       0.8       1.8
 4 C  py              0.0       0.1       0.0       0.0       0.1       0.2
 5 C  s               0.0       1.0       0.3       0.0      16.5       0.0
 5 C  pz              0.0       0.0       0.2       0.0       0.4       0.1
 5 C  px              0.0       0.0       0.1       0.0       3.6       1.4
 5 C  py              0.0       1.6       0.2       0.0       1.0       0.0
 5 C  dx2y2           0.0       0.0       0.0       0.0       0.1       0.0
 5 C  dxy             0.0       0.0       0.0       0.0       0.1       0.0
 6 C  s               0.0       0.0       0.0       0.4       0.7      17.4
 6 C  px              0.0       0.0       0.0       0.1       0.3       0.7
 6 C  py              0.0       0.0       0.0       0.0       0.0       0.1
 6 C  dyz             0.0       0.0       0.0       0.0       0.0       0.1
 7 C  s               0.8       0.0       0.0       0.7       0.1      12.4
 7 C  pz              0.0       0.0       0.0       0.1       0.0       0.9
 7 C  px              0.2       0.0       0.0       0.3       0.0       0.2
 7 C  py              0.0       0.0       0.0       0.0       0.1       1.2
 8 C  s               0.0       0.0       0.0       0.7       0.1      12.6
 8 C  pz              0.0       0.0       0.0       0.0       0.0       0.7
 8 C  px              0.0       0.0       0.0       0.2       0.0       0.0
 8 C  py              0.0       0.0       0.0       0.2       0.0       1.4
 9 C  s               0.0      19.3       4.2       0.0       0.4       0.0
 9 C  pz              0.0       0.8      16.6       0.0       0.1       0.0
 9 C  px              0.0       0.4       6.9       0.0       0.0       0.1
[...]
 12 C      5.7625     6.0000     0.2375     3.9539     3.9539     0.0000
 13 H      0.9072     1.0000     0.0928     0.9568     0.9568     0.0000
 14 H      0.8686     1.0000     0.1314     0.9560     0.9560    -0.0000
 15 H      0.9040     1.0000     0.0960     0.9513     0.9513     0.0000
 16 H      0.9064     1.0000     0.0936     0.9634     0.9634     0.0000
 17 H      0.9295     1.0000     0.0705     0.9613     0.9613     0.0000
 18 H      0.9294     1.0000     0.0706     0.9605     0.9605     0.0000
 19 H      0.9310     1.0000     0.0690     0.9604     0.9604    -0.0000
 20 H      0.7636     1.0000     0.2364     0.9192     0.9192     0.0000
 21 H      0.7672     1.0000     0.2328     0.9232     0.9232     0.0000
 22 H      0.7486     1.0000     0.2514     0.9201     0.9201    -0.0000
 23 H      0.7481     1.0000     0.2519     0.9199     0.9199     0.0000
 24 H      0.6784     1.0000     0.3216     0.9148     0.9148     0.0000

  Mayer bond orders larger than 0.100000
B(  0-O ,  9-C ) :   1.0834 B(  0-O , 24-H ) :   0.8530 B(  1-O ,  9-C ) :   1.9308 
B(  2-N ,  5-C ) :   1.0050 B(  2-N , 20-H ) :   0.9107 B(  2-N , 21-H ) :   0.9079 
B(  3-N , 12-C ) :   1.0371 B(  3-N , 22-H ) :   0.9040 B(  3-N , 23-H ) :   0.9038 
B(  4-C ,  5-C ) :   0.9635 B(  4-C ,  6-C ) :   0.9872 B(  4-C , 13-H ) :   0.9416 
B(  4-C , 14-H ) :   0.9370 B(  5-C ,  9-C ) :   0.9125 B(  5-C , 15-H ) :   0.9312 
B(  6-C ,  7-C ) :   1.4215 B(  6-C ,  8-C ) :   1.4198 B(  7-C , 10-C ) :   1.4456 
B(  7-C , 16-H ) :   0.9334 B(  8-C , 11-C ) :   1.4520 B(  8-C , 17-H ) :   0.9378 
B( 10-C , 12-C ) :   1.3881 B( 10-C , 18-H ) :   0.9375 B( 11-C , 12-C ) :   1.3865 
B( 11-C , 19-H ) :   0.9372 

-------
TIMINGS
-------

Total SCF time: 0 days 0 hours 1 min 6 sec 

Total time                  ....      66.142 sec
Sum of individual times     ....      63.090 sec  ( 95.4%)

SCF preparation             ....       0.373 sec  (  0.6%)
Fock matrix formation       ....      62.061 sec  ( 93.8%)
  Startup                   ....       0.006 sec  (  0.0% of F)
  Split-RI-J                ....       5.826 sec  (  9.4% of F)
  Chain of spheres X        ....      49.957 sec  ( 80.5% of F)
  XC integration            ....       9.192 sec  ( 14.8% of F)
    XC Preparation          ....       0.000 sec  (  0.0% of XC)
    Basis function eval.    ....       3.383 sec  ( 36.8% of XC)
    Density eval.           ....       2.047 sec  ( 22.3% of XC)
    XC-Functional eval.     ....       0.493 sec  (  5.4% of XC)
    XC-Potential eval.      ....       2.728 sec  ( 29.7% of XC)
Diagonalization             ....       0.000 sec  (  0.0%)
Density matrix formation    ....       0.040 sec  (  0.1%)
Total Energy calculation    ....       0.019 sec  (  0.0%)
Population analysis         ....       0.285 sec  (  0.4%)
Orbital Transformation      ....       0.034 sec  (  0.1%)
Orbital Orthonormalization  ....       0.000 sec  (  0.0%)
DIIS solution               ....       0.164 sec  (  0.2%)
  MO trafo                  ....       0.000 sec  (  0.0 % of DIIS)
  Orb grad                  ....       0.000 sec  (  0.0 % of DIIS)
  Energy W gradient         ....       0.000 sec  (  0.0 % of DIIS)
  DIIS error                ....       0.035 sec  ( 21.3 % of DIIS)
  DIIS work                 ....       0.106 sec  ( 64.9 % of DIIS)
  Form Q                    ....       0.000 sec  (  0.0 % of DIIS)
  Form QpQm                 ....       0.000 sec  (  0.0 % of DIIS)
  Exp/Cayley                ....       0.000 sec  (  0.0 % of DIIS)
  Orb update                ....       0.000 sec  (  0.0 % of DIIS)
  Wake-sleep                ....       0.005 sec  (  3.1 % of DIIS)
SOSCF solution              ....       0.114 sec  (  0.2%)
  MO trafo                  ....       0.039 sec  ( 34.6 % of SOSCF)
  Orb grad                  ....       0.003 sec  (  3.0 % of SOSCF)
  Rot update                ....       0.012 sec  ( 10.1 % of SOSCF)
  Step                      ....       0.054 sec  ( 47.4 % of SOSCF)
Finished LeanSCF after  66.2 sec

Maximum memory used throughout the entire LEANSCF-calculation: 28.4 MB


-------------------------------------------------------------------------------
                          DFT DISPERSION CORRECTION                            
                                                                               
                              DFTD3 V3.1  Rev 1                                
                          USING Becke-Johnson damping                          
-------------------------------------------------------------------------------
The B3LYP functional is recognized
Active option DFTDOPT                   ...         4   

molecular C6(AA) [au] = 6281.118505 


            DFT-D V3
 parameters
 s6 scaling factor         :     1.0000 
 a1 scaling factor         :     0.3981 
 s8 scaling factor         :     1.9889 
 a2 scaling factor         :     4.4211 
 ad hoc parameters k1-k3   :    16.0000     1.3333    -4.0000 

 Edisp/kcal,au: -29.487657135508  -0.046991567791 
 E6   /kcal   : -14.046294641 
 E8   /kcal   : -15.441362495 
 % E8         :  52.365511522 

-------------------------   ----------------
Dispersion correction           -0.046991568
-------------------------   ----------------


-------------------------   --------------------
FINAL SINGLE POINT ENERGY      -609.843663348419
-------------------------   --------------------



           ************************************************************
           *        Program running with 2 parallel MPI-processes     *
           *              working on a common directory               *
           ************************************************************
------------------------------------------------------------------------------
                            ORCA SCF RESPONSE CALCULATION
------------------------------------------------------------------------------

GBWName                                 ... /kaggle/working/Phe-NH2-2/Phe-NH2_InterFrag.gbw
Number of atoms                         ...     25
Number of basis functions               ...    242
Max core memory                         ...   3000 MB

Electric field perturbation             ... YES
Quadrupolar field perturbation          ...  NO
Magnetic field perturbation (no GIAO)   ...  NO
Magnetic field perturbation (with GIAO) ...  NO
Linear momentum (velocity) perturbation ...  NO
Spin-orbit coupling perturbation        ...  NO
Choice of electric origin               ... Center of mass
Position of electric origin             ...     0.138967     0.093111    -0.088266
Choice of magnetic origin               ... GIAO
Position of magnetic origin             ...     0.000000     0.000000     0.000000
Nuclear geometric perturbations         ...  NO (  75 perturbations)
Nucleus-orbit perturbations             ...  NO (   0 perturbations)
Spin-dipole/Fermi contact perturbations ...  NO (   0 perturbations)

Total number of real perturbations      ...      3
Total number of imaginary perturbations ...      0
Total number of triplet perturbations   ...      0
Total number of SOC perturbations       ...      0

Using XC Grid                  ... (/kaggle/working/Phe-NH2-2/Phe-NH2_InterFrag.grid_cpscf.tmp) 
Recalculating density on grid  ... (/kaggle/working/Phe-NH2-2/Phe-NH2_InterFrag.grho_cpscf0.tmp) done
Calculating the xc-kernel      ... (/kaggle/working/Phe-NH2-2/Phe-NH2_InterFrag.fxc_cpscf0.tmp) done

                                **********************
                                * REAL PERTURBATIONS *
                                **********************



-------------------
SHARK CP-SCF DRIVER
-------------------

Dimension of the orbital basis          ...    242
Dimension of the CPSCF-problem          ...   9312
Number of operators                     ...      1
Max. number of iterations               ...    128
Convergence Tolerance                   ... 1.0e-04
Number of perturbations                 ...      3
Perturbation type                       ... REAL

----------------------------
POPLE LINEAR EQUATION SOLVER
----------------------------

  ITERATION   0:   ||err||_max =   1.7696e+01 (   2.8 sec   0/  3 done)
  ITERATION   1:   ||err||_max =   1.0619e+00 (   2.7 sec   0/  3 done)
  ITERATION   2:   ||err||_max =   4.3150e-01 (   2.7 sec   0/  3 done)
  ITERATION   3:   ||err||_max =   1.1025e-01 (   2.7 sec   0/  3 done)
  ITERATION   4:   ||err||_max =   4.8222e-02 (   2.7 sec   0/  3 done)
  ITERATION   5:   ||err||_max =   1.5344e-02 (   2.6 sec   0/  3 done)
  ITERATION   6:   ||err||_max =   4.6138e-03 (   2.7 sec   0/  3 done)
  ITERATION   7:   ||err||_max =   1.6617e-03 (   2.7 sec   0/  3 done)
  ITERATION   8:   ||err||_max =   5.7010e-04 (   2.7 sec   0/  3 done)
  ITERATION   9:   ||err||_max =   1.5306e-04 (   2.7 sec   0/  3 done)
  ITERATION  10:   ||err||_max =   4.9917e-05 (   2.7 sec   3/  3 done)

CP-SCF equations solved in  29.6 sec
Response densities calculated in   0.0 sec

Maximum memory used throughout the entire SCFRESP-calculation: 31.9 MB


           ************************************************************
           *        Program running with 2 parallel MPI-processes     *
           *              working on a common directory               *
           ************************************************************

------------------------------------------------------------------------------
                              ORCA PROPERTY CALCULATIONS
------------------------------------------------------------------------------

GBWName                                 ... /kaggle/working/Phe-NH2-2/Phe-NH2_InterFrag.gbw
Number of atoms                         ...     25
Number of basis functions               ...    242
Max core memory                         ...   3000 MB

Electric properties:
Dipole moment                           ... YES
Quadrupole moment                       ...  NO
Static polarizability (Dipole/Dipole)   ... YES
Static polarizability (Dipole/Quad.)    ...  NO
Static polarizability (Quad./Quad.)     ...  NO
Static polarizability (Velocity)        ...  NO
Static hyperpolarizability              ...  NO

Atomic electric properties:
Dipole moment                           ...  NO
Quadrupole moment                       ...  NO
Static polarizability                   ...  NO

Choice of electric origin               ... Center of mass
Position of electric origin             ...     0.138967     0.093111    -0.088266

General magnetic properties:
Magnetizability                         ...  NO

EPR properties:
g-Tensor (aka g-matrix)                 ...  NO
Zero-Field splitting spin-orbit         ...  NO
Zero-field splitting spin-spin          ...  NO
Hyperfine couplings                     ...  NO (   0 nuclei)
Quadrupole couplings                    ...  NO (   0 nuclei)
Contact density                         ...  NO (   0 nuclei)

NMR properties:
Chemical shifts                         ...  NO (   0 nuclei)
Spin-rotation constants                 ...  NO (   0 nuclei)
Spin-spin couplings                     ...  NO (   0 nuclei,    0 pairs)

Choice of magnetic origin               ... GIAO
Position of magnetic origin             ...     0.000000     0.000000     0.000000

Properties with geometric perturbations:
SCF Hessian                             ...  NO
IR spectrum                             ...  NO
VCD spectrum                            ...  NO
X-ray spectroscopy properties:
SCF XES/XAS/RIXS spectra                ...  NO

SCF SOC stabilization energy            ...  NO
Diagonal Born-Oppenheimer correction    ...  NO

-------------
DIPOLE MOMENT
-------------

Method             : SCF
Type of density    : Electron Density
Multiplicity       :   1
Irrep              :   0
Energy             :  -609.7966717806274346 Eh
Basis              : AO
                                X                 Y                 Z
Electronic contribution:      1.373164755       4.030008676      -0.420666934
Nuclear contribution   :     -2.505088606      -4.574516277      -0.201239174
                        -----------------------------------------
Total Dipole Moment    :     -1.131923851      -0.544507601      -0.621906109
                        -----------------------------------------
Magnitude (a.u.)       :      1.401608840
Magnitude (Debye)      :      3.562606547



--------------------
Rotational spectrum 
--------------------
 
Rotational constants in cm-1:             0.055992             0.014989             0.013550 
Rotational constants in MHz :          1678.608508           449.353555           406.223958 

Dipole components along the rotational axes: 
x,y,z [a.u.] :     1.117724    -0.578393    -0.616978 
x,y,z [Debye]:     2.841028    -1.470159    -1.568233 

 

Dipole moment calculation done in   0.0 sec 


---------------------------------------------------
STATIC POLARIZABILITY TENSOR (Dipole/Dipole)
---------------------------------------------------

Method             : SCF
Type of density    : Electron Density
Type of derivative : Electric Field (Direction=X)
Multiplicity       :   1
Irrep              :   0
Basis              : AO

The raw cartesian tensor (atomic units):
     145.727477273       -17.446885095        16.919016415  
     -17.446885095       105.331738780        15.586896557  
      16.919016415        15.586896557        80.338676599  
diagonalized tensor: 
      66.192828685       111.337316738       153.867747228  

Orientation: 
      -0.280176548         0.171977114        -0.944417796  
      -0.460359833         0.839236727         0.289396854  
       0.842359737         0.515854231        -0.155963094  

Isotropic polarizability : 110.46596


Polarizability tensor calculation done in   0.0 sec 

Maximum memory used throughout the entire PROP-calculation: 14.8 MB

--------------------------------
SUGGESTED CITATIONS FOR THIS RUN
--------------------------------

Below you find a list of papers that are relevant to this ORCA run
We neither can nor want to force you to cite these papers, but we appreciate if you do
You receive ORCA, which is the product of decades of hard work by many enthusiastic individuals, for free
The only thing we kindly ask in return is that you cite our papers,
We deeply appreciate it, if you show your appreciation for ORCA by not just citing the generic ORCA reference.

Please note that relegating all ORCA citations to the supporting information does *not* help us.
SI sections are not indexed - citations you put there will not count into any citation statistics
But we need these citations in order to attract the funding resources that allow us to do what we are doing

Therefore, if you are a happy ORCA user, please consider citing a few of the papers listed below in the main body of your paper

In addition to the list printed below, the program has created the file /kaggle/working/Phe-NH2-2/Phe-NH2_InterFrag.bibtex that contains the list in bibtex format
You can import this file easily into all common literature databanks and citation aid programs

It goes without saying that in many instances, there are alternative algorithms to achieve similar
results as the ones you have gotten from ORCA. It is, of course, also the case that in some instances
ORCA just re-implements algorithms worked out by others. We are fully aware of that and we are also
fully appreciative of our colleagues work. Hence this citation list should not be read as indicating
that the listed papers, which are focused on our own work, are the only ones worth citing. It simply
meant to make it easier for users to cite ORCA specific papers. It is not a substitute for doing your
own literature research and citing the relevant literature in a scientifically appropriate manner.

List of essential papers. We consider these as the minimum necessary citations

  1. Neese, F.
     Software update: the ORCA program system, version 6.0
     WIRES Comput. Molec. Sci. 2025 15(1), e70019
     doi.org/10.1002/wcms.70019

List of papers to cite with high priority. The work reported in these papers was absolutely
necessary for this run to complete.
Our perspective: the developers of density functionals and basis sets usually get cited in chemistry papers
Good! But without the algorithms to do something with them, the functionals or basis sets would not do anything.
Hence, in our opinion, the algorithm design and method developments papers are equally worthy of getting cited

  1. Neese, F.
     An improvement of the resolution of the identity approximation for the formation of the Coulomb matrix
     J. Comp. Chem. 2003 24(14), 1740-1747
     doi.org/10.1002/jcc.10318
  2. Neese, F.; Wennmohs, F.; Hansen, A.; Becker, U.
     Efficient, approximate and parallel Hartree-Fock and hybrid DFT calculations. A 'chain-of-spheres' algorithm for the Hartree-Fock exchange
     Chem. Phys. 2009 356(1-3), 98-109
     doi.org/10.1016/j.chemphys.2008.10.036
  3. Grimme, S.; Antony, J.; Ehrlich, S.; Krieg, H.
     A consistent and accurate ab initio parametrization of density functional dispersion correction (DFT-D) for the 94 elements H-Pu
     J. Chem. Phys. 2010 132 , 154104
     doi.org/10.1063/1.3382344
  4. Grimme, S.; Ehrlich, S.; Goerigk, L.
     Effect of the damping function in dispersion corrected density functional theory
     J. Comput. Chem. 2011 32(7), 1456-1465
     doi.org/10.1002/jcc.21759
  5. Helmich-Paris, B.; de Souza, B.; Neese, F.; Izsák, R.
     An improved chain of spheres for exchange algorithm
     J. Chem. Phys. 2021 155(10), 104109
     doi.org/10.1063/5.0058766
  6. Neese, F.
     The SHARK Integral Generation and Digestion System
     J. Comp. Chem. 2022 44(3), 381
     doi.org/10.1002/jcc.26942

List of suggested additional citations. These are papers that are important in the 'surrounding' of 
of this run, or papers that preceded the highly important papers. If you like your results we are grateful for a citation.

  1. Izsak, R.; Neese, F.
     An overlap fitted chain of spheres exchange method
     J. Chem. Phys. 2011 135 , 144105
     doi.org/10.1063/1.3646921
  2. Izsak, R.; Hansen, A.; Neese, F.
     The resolution of identity and chain of spheres approximations for the LPNO-CCSD singles Fock term
     Molec. Phys. 2012 110 , 2413-2417
     doi.org/10.1080/00268976.2012.687466
  3. Neese, F.
     The ORCA program system
     WIRES Comput. Molec. Sci. 2012 2(1), 73-78
     doi.org/10.1002/wcms.81
  4. Izsak, R.; Neese, F.; Klopper, W.
     Robust fitting techniques in the chain of spheres approximation to the Fock exchange: The role of the complementary space
     J. Chem. Phys. 2013 139 , 
     doi.org/10.1063/1.4819264
  5. Neese, F.
     Software update: the ORCA program system, version 4.0
     WIRES Comput. Molec. Sci. 2018 8(1), 1-6
     doi.org/10.1002/wcms.1327
  6. Neese, F.; Wennmohs, F.; Becker, U.; Riplinger, C.
     The ORCA quantum chemistry program package
     J. Chem. Phys. 2020 152(22), 224108
     doi.org/10.1063/5.0004608
  7. Neese, F.
     Software update: The ORCA program system—Version 5.0
     WIRES Comput. Molec. Sci. 2022 12(1), e1606
     doi.org/10.1002/wcms.1606

List of optional additional citations

  1. Neese, F.
     Approximate second-order SCF convergence for spin unrestricted wavefunctions
     Chem. Phys. Lett. 2000 325(1-3), 93-98
     doi.org/10.1016/s0009-2614(00)00662-x

Timings for individual modules:

Sum of individual times          ...      101.321 sec (=   1.689 min)
Startup calculation              ...        3.033 sec (=   0.051 min)   3.0 %
SCF iterations                   ...       67.521 sec (=   1.125 min)  66.6 %
SCF Response                     ...       30.333 sec (=   0.506 min)  29.9 %
Property calculations            ...        0.434 sec (=   0.007 min)   0.4 %
                             ****ORCA TERMINATED NORMALLY****
TOTAL RUN TIME: 0 days 0 hours 1 minutes 41 seconds 816 msec
