[Molden Format]
[Title]
 Molden file created by orca_2mkl for BaseName=/kaggle/working/Met-2/Met_InterFrag

[Atoms] AU
S    1  16          4.4941655890         1.5908092541         0.8210047470 
O    2   8         -2.4281676910         3.1491057700         0.9483496117 
O    3   8         -5.1398623322         0.5585576918        -1.0671774807 
N    4   7         -2.6031355440        -3.6041178080         1.0401581764 
C    5   6          0.6468570351        -1.4332212123        -1.4294890032 
C    6   6         -1.2779178494        -1.1887889163         0.7434125919 
C    7   6          2.3862819112         0.8367215992        -1.8330230115 
C    8   6         -3.1791202902         0.8630568226         0.1053900265 
C    9   6          6.5297823599        -1.1950722557         0.7920201275 
H   10   1          1.7809497182        -3.1244731898        -1.0538719190 
H   11   1         -0.3890870521        -1.7869042452        -3.1889336380 
H   12   1         -0.2653024314        -0.5739816365         2.4453264043 
H   13   1          1.3006134603         2.5625971390        -2.1637269747 
H   14   1          3.5612569295         0.5165358517        -3.5037374455 
H   15   1         -3.7566791782        -3.4821529935         2.5770440953 
H   16   1         -1.2771789665        -4.9233790858         1.4942914918 
H   17   1          5.4911605308        -2.8997337299         1.3176984743 
H   18   1          8.0211939090        -0.8728607218         2.1830702114 
H   19   1          7.3907982783        -1.4477078528        -1.0693695630 
H   20   1         -3.6635912688         4.3942123046         0.3834915730 
[GTO]
  1 0
s   6 1.0 
    21917.1000000000         2.3994239599
     3301.4900000000         4.4172071119
      754.1460000000         7.1484157113
      212.7110000000         9.4671126640
       67.9896000000         8.1557766316
       23.0515000000         2.5348165751
s   6 1.0 
      423.7350000000        -0.1581995712
      100.7100000000        -0.7180885143
       32.1599000000        -1.0906647278
       11.8079000000         0.2546391187
        4.6311000000         1.3325454715
        1.8702500000         0.5186233353
p   6 1.0 
      423.7350000000        11.1286128426
      100.7100000000        13.9524468845
       32.1599000000        14.2407947184
       11.8079000000        10.2088280008
        4.6311000000         4.3853135609
        1.8702500000         0.7982260787
s   3 1.0 
        2.6158400000        -0.3670338893
        0.9221670000         0.0449067603
        0.3412870000         0.3355823165
p   3 1.0 
        2.6158400000        -0.0688099412
        0.9221670000         0.3996518544
        0.3412870000         0.2805362679
s   1 1.0 
        0.1171670000         0.1427296086
p   1 1.0 
        0.1171670000         0.0977117352
d   1 1.0 
        0.6500000000         1.3414313681

  2 0
s   6 1.0 
     5484.6717000000         0.8317352088
      825.2349500000         1.5308074829
      188.0469600000         2.4771490916
       52.9645000000         3.2562802462
       16.8975700000         2.7928936336
        5.7996353000         0.9549376963
s   3 1.0 
       15.5396160000        -0.6179336976
        3.5999336000        -0.2757210088
        1.0137618000         0.8142076427
p   3 1.0 
       15.5396160000         3.1169455889
        3.5999336000         2.4014372483
        1.0137618000         1.0543605133
s   1 1.0 
        0.2700058000         0.2669561389
p   1 1.0 
        0.2700058000         0.2774319373
d   1 1.0 
        0.8000000000         1.9292013661

  3 0
s   6 1.0 
     5484.6717000000         0.8317352088
      825.2349500000         1.5308074829
      188.0469600000         2.4771490916
       52.9645000000         3.2562802462
       16.8975700000         2.7928936336
        5.7996353000         0.9549376963
s   3 1.0 
       15.5396160000        -0.6179336976
        3.5999336000        -0.2757210088
        1.0137618000         0.8142076427
p   3 1.0 
       15.5396160000         3.1169455889
        3.5999336000         2.4014372483
        1.0137618000         1.0543605133
s   1 1.0 
        0.2700058000         0.2669561389
p   1 1.0 
        0.2700058000         0.2774319373
d   1 1.0 
        0.8000000000         1.9292013661

  4 0
s   6 1.0 
     4173.5110000000         0.6790079572
      627.4579000000         1.2504643275
      142.9021000000         2.0203691378
       40.2343300000         2.6442129843
       12.8202100000         2.2650039968
        4.3904370000         0.7791872309
s   3 1.0 
       11.6263580000        -0.5158738103
        2.7162800000        -0.2550239186
        0.7722180000         0.6727344163
p   3 1.0 
       11.6263580000         2.0680595460
        2.7162800000         1.6100106206
        0.7722180000         0.7644899877
s   1 1.0 
        0.2120313000         0.2226947990
p   1 1.0 
        0.2120313000         0.2050879094
d   1 1.0 
        0.8000000000         1.9292013661

  5 0
s   6 1.0 
     3047.5249000000         0.5363343823
      457.3695100000         0.9894506076
      103.9486900000         1.5972822308
       29.2101550000         2.0791870615
        9.2866630000         1.7741742532
        3.1639270000         0.6125798260
s   3 1.0 
        7.8682724000        -0.3995563516
        1.8812885000        -0.1841552393
        0.5442493000         0.5163903794
p   3 1.0 
        7.8682724000         1.2960827175
        1.8812885000         0.9937536282
        0.5442493000         0.4959527138
s   1 1.0 
        0.1687144000         0.1876178721
p   1 1.0 
        0.1687144000         0.1541275509
d   1 1.0 
        0.8000000000         1.9292013661

  6 0
s   6 1.0 
     3047.5249000000         0.5363343823
      457.3695100000         0.9894506076
      103.9486900000         1.5972822308
       29.2101550000         2.0791870615
        9.2866630000         1.7741742532
        3.1639270000         0.6125798260
s   3 1.0 
        7.8682724000        -0.3995563516
        1.8812885000        -0.1841552393
        0.5442493000         0.5163903794
p   3 1.0 
        7.8682724000         1.2960827175
        1.8812885000         0.9937536282
        0.5442493000         0.4959527138
s   1 1.0 
        0.1687144000         0.1876178721
p   1 1.0 
        0.1687144000         0.1541275509
d   1 1.0 
        0.8000000000         1.9292013661

  7 0
s   6 1.0 
     3047.5249000000         0.5363343823
      457.3695100000         0.9894506076
      103.9486900000         1.5972822308
       29.2101550000         2.0791870615
        9.2866630000         1.7741742532
        3.1639270000         0.6125798260
s   3 1.0 
        7.8682724000        -0.3995563516
        1.8812885000        -0.1841552393
        0.5442493000         0.5163903794
p   3 1.0 
        7.8682724000         1.2960827175
        1.8812885000         0.9937536282
        0.5442493000         0.4959527138
s   1 1.0 
        0.1687144000         0.1876178721
p   1 1.0 
        0.1687144000         0.1541275509
d   1 1.0 
        0.8000000000         1.9292013661

  8 0
s   6 1.0 
     3047.5249000000         0.5363343823
      457.3695100000         0.9894506076
      103.9486900000         1.5972822308
       29.2101550000         2.0791870615
        9.2866630000         1.7741742532
        3.1639270000         0.6125798260
s   3 1.0 
        7.8682724000        -0.3995563516
        1.8812885000        -0.1841552393
        0.5442493000         0.5163903794
p   3 1.0 
        7.8682724000         1.2960827175
        1.8812885000         0.9937536282
        0.5442493000         0.4959527138
s   1 1.0 
        0.1687144000         0.1876178721
p   1 1.0 
        0.1687144000         0.1541275509
d   1 1.0 
        0.8000000000         1.9292013661

  9 0
s   6 1.0 
     3047.5249000000         0.5363343823
      457.3695100000         0.9894506076
      103.9486900000         1.5972822308
       29.2101550000         2.0791870615
        9.2866630000         1.7741742532
        3.1639270000         0.6125798260
s   3 1.0 
        7.8682724000        -0.3995563516
        1.8812885000        -0.1841552393
        0.5442493000         0.5163903794
p   3 1.0 
        7.8682724000         1.2960827175
        1.8812885000         0.9937536282
        0.5442493000         0.4959527138
s   1 1.0 
        0.1687144000         0.1876178721
p   1 1.0 
        0.1687144000         0.1541275509
d   1 1.0 
        0.8000000000         1.9292013661

 10 0
s   3 1.0 
       18.7311370000         0.2149354183
        2.8253937000         0.3645711272
        0.6401217000         0.4150514277
s   1 1.0 
        0.1612778000         0.1813806839
p   1 1.0 
        1.1000000000         1.6057611426

 11 0
s   3 1.0 
       18.7311370000         0.2149354183
        2.8253937000         0.3645711272
        0.6401217000         0.4150514277
s   1 1.0 
        0.1612778000         0.1813806839
p   1 1.0 
        1.1000000000         1.6057611426

 12 0
s   3 1.0 
       18.7311370000         0.2149354183
        2.8253937000         0.3645711272
        0.6401217000         0.4150514277
s   1 1.0 
        0.1612778000         0.1813806839
p   1 1.0 
        1.1000000000         1.6057611426

 13 0
s   3 1.0 
       18.7311370000         0.2149354183
        2.8253937000         0.3645711272
        0.6401217000         0.4150514277
s   1 1.0 
        0.1612778000         0.1813806839
p   1 1.0 
        1.1000000000         1.6057611426

 14 0
s   3 1.0 
       18.7311370000         0.2149354183
        2.8253937000         0.3645711272
        0.6401217000         0.4150514277
s   1 1.0 
        0.1612778000         0.1813806839
p   1 1.0 
        1.1000000000         1.6057611426

 15 0
s   3 1.0 
       18.7311370000         0.2149354183
        2.8253937000         0.3645711272
        0.6401217000         0.4150514277
s   1 1.0 
        0.1612778000         0.1813806839
p   1 1.0 
        1.1000000000         1.6057611426

 16 0
s   3 1.0 
       18.7311370000         0.2149354183
        2.8253937000         0.3645711272
        0.6401217000         0.4150514277
s   1 1.0 
        0.1612778000         0.1813806839
p   1 1.0 
        1.1000000000         1.6057611426

 17 0
s   3 1.0 
       18.7311370000         0.2149354183
        2.8253937000         0.3645711272
        0.6401217000         0.4150514277
s   1 1.0 
        0.1612778000         0.1813806839
p   1 1.0 
        1.1000000000         1.6057611426

 18 0
s   3 1.0 
       18.7311370000         0.2149354183
        2.8253937000         0.3645711272
        0.6401217000         0.4150514277
s   1 1.0 
        0.1612778000         0.1813806839
p   1 1.0 
        1.1000000000         1.6057611426

 19 0
s   3 1.0 
       18.7311370000         0.2149354183
        2.8253937000         0.3645711272
        0.6401217000         0.4150514277
s   1 1.0 
        0.1612778000         0.1813806839
p   1 1.0 
        1.1000000000         1.6057611426

 20 0
s   3 1.0 
       18.7311370000         0.2149354183
        2.8253937000         0.3645711272
        0.6401217000         0.4150514277
s   1 1.0 
        0.1612778000         0.1813806839
p   1 1.0 
        1.1000000000         1.6057611426

[5D]
[7F]
[9G]
[MO]
 Sym=     1a
 Ene= -8.88473495824989E+01
 Spin= Alpha
 Occup= 2.000000
  1      -0.996606466929
  2      -0.012459402724
  3       0.000025843975
  4       0.000115849913
  5       0.000080282794
  6       0.004879510144
  7      -0.000163777364
  8      -0.000321142484
  9      -0.000217940244
 10      -0.003538371067
 11       0.000166785165
 12       0.000861296937
 13       0.000468969523
 14       0.000005848974
 15       0.000012811000
 16      -0.000006213394
 17       0.000032970880
 18      -0.000000692255
 19       0.000000492443
 20      -0.000002858683
 21      -0.000015387647
 22      -0.000007962438
 23       0.000007398610
 24       0.000063577207
 25       0.000053982069
 26      -0.000006596604
 27      -0.000034941000
 28       0.000007196324
 29      -0.000010994876
 30       0.000008621262
 31       0.000001326569
 32       0.000001866706
 33       0.000001094928
 34       0.000022257446
 35      -0.000003784544
 36      -0.000002390814
 37       0.000005681560
 38      -0.000124109058
 39       0.000002723965
 40       0.000007405118
 41      -0.000040412883
 42      -0.000004915786
 43       0.000000479904
 44       0.000000942993
 45       0.000002771011
 46       0.000002943753
 47      -0.000013850110
 48      -0.000133105554
 49       0.000002730504
 50       0.000006016002
 51       0.000007690997
 52       0.000777497248
 53       0.000241333105
 54       0.000303810263
 55       0.000000670956
 56      -0.000023326706
 57      -0.000005105859
 58       0.000003614329
 59      -0.000014203918
 60       0.000032142465
 61      -0.000035008762
 62      -0.000356959083
 63      -0.000043111423
 64      -0.000028368842
 65      -0.000089171324
 66       0.001278463580
 67       0.000550891122
 68       0.000334270548
 69       0.000643808872
 70      -0.000025310942
 71      -0.000002898016
 72      -0.000024252483
 73      -0.000007377931
 74       0.000027997022
 75       0.000020356085
 76       0.000095569061
 77      -0.000076575116
 78      -0.000040540510
 79       0.000052818822
 80      -0.001175392842
 81      -0.000046860261
 82       0.000616678756
 83      -0.000389884001
 84       0.000041355545
 85      -0.000004939087
 86       0.000004474335
 87      -0.000002672845
 88      -0.000049782748
 89       0.000041151547
 90       0.000273162418
 91      -0.000034088736
 92       0.000002219644
 93      -0.000029159845
 94      -0.000696361117
 95       0.000430689061
 96       0.000264609101
 97      -0.000199316602
 98      -0.000061776259
 99      -0.000169058159
100      -0.000042776461
101      -0.000037792513
102      -0.000096015198
103       0.000006097701
104       0.000067906209
105       0.000005146399
106      -0.000003191710
107       0.000010269106
108      -0.000218721738
109      -0.000273348157
110      -0.000036132014
111      -0.000019525756
112       0.000012887033
113       0.000001481192
114      -0.000007827289
115      -0.000018824077
116       0.000002377177
117       0.000015909847
118       0.000026307683
119       0.000079729032
120      -0.000105398054
121      -0.000002094807
122       0.000230844187
123      -0.000360370164
124       0.000230354870
125      -0.000044169979
126       0.000114902682
127       0.000007080830
128      -0.000019132795
129       0.000081019024
130       0.000192713303
131      -0.000114536948
132      -0.000155905450
133      -0.000017248828
134      -0.000026696087
135      -0.000033155500
136       0.000034427944
137       0.000273882485
138       0.000002800983
139      -0.000011513292
140       0.000016455345
141      -0.000067425448
142       0.000746117304
143      -0.000013188276
144      -0.000044586540
145      -0.000039298453
146      -0.000012591369
147       0.000333479246
148      -0.000000463753
149       0.000014460211
150       0.000068082664
151      -0.000062327111
152       0.000214284142
153       0.000054321424
154      -0.000012557784
155       0.000030984752
156      -0.000028595717
157       0.000013039938
158      -0.000007780814
159      -0.000002748129
160       0.000000033286
161      -0.000039911736
162       0.000013816396
163       0.000003358265
164      -0.000000242615
165      -0.000000994903
166      -0.000069582786
167       0.000242770611
168      -0.000023652107
169       0.000011141794
170       0.000011164594
171      -0.000045510515
172       0.000303983591
173      -0.000001601664
174       0.000025143971
175       0.000007903272
176      -0.000073336303
177       0.000355306122
178      -0.000011148679
179       0.000032773999
180      -0.000003467560
181       0.000016506292
182      -0.000005725288
183      -0.000000407082
184      -0.000006552117
185       0.000004696732
 Sym=     1a
 Ene= -1.91922677829574E+01
 Spin= Alpha
 Occup= 2.000000
  1      -0.000000867635
  2       0.000000523170
  3      -0.000008207843
  4       0.000002503558
  5      -0.000005627958
  6      -0.000023294949
  7       0.000040091816
  8      -0.000010031576
  9       0.000032051017
 10       0.000056275688
 11      -0.000033348510
 12      -0.000028723412
 13      -0.000110288817
 14       0.000003926692
 15      -0.000000251605
 16       0.000009353761
 17      -0.000009287797
 18       0.000005106831
 19       0.995101349680
 20       0.030299309180
 21      -0.001642620440
 22      -0.000409013285
 23      -0.001112770415
 24      -0.021565112090
 25       0.002402287723
 26       0.006067696763
 27       0.002548454315
 28      -0.000040935102
 29       0.000058047646
 30      -0.000666492955
 31       0.000346877095
 32      -0.000940756637
 33      -0.000523776388
 34      -0.000570529050
 35      -0.000112435320
 36       0.000111852098
 37      -0.000051983150
 38       0.002566651075
 39       0.000884649655
 40      -0.002217157633
 41       0.000167498357
 42      -0.000097996851
 43       0.000111158790
 44      -0.000256571335
 45       0.000104067773
 46      -0.000476391152
 47      -0.000018697963
 48      -0.000325770641
 49       0.000082628731
 50      -0.000211603691
 51       0.000057056502
 52      -0.000689856718
 53      -0.001178692149
 54       0.000785824551
 55       0.000438677687
 56      -0.000050704859
 57       0.000027917433
 58       0.000104790580
 59      -0.000079603596
 60      -0.000019655138
 61       0.000084221477
 62       0.000673972110
 63       0.000035776992
 64       0.000105945364
 65      -0.000111783837
 66      -0.003824192224
 67       0.002040221393
 68      -0.000471836157
 69      -0.000249478558
 70       0.000050007769
 71       0.000108523707
 72      -0.000019706075
 73      -0.000067375300
 74      -0.000036357388
 75      -0.000089529631
 76      -0.001142920930
 77       0.000205362871
 78      -0.000136459910
 79       0.000240581654
 80       0.003825173646
 81      -0.001241262416
 82      -0.001744366119
 83      -0.003936700591
 84       0.000105240744
 85       0.000076887993
 86       0.000005489338
 87       0.000277030268
 88       0.000077560862
 89       0.000007104723
 90       0.000124887372
 91      -0.000087009797
 92      -0.000077650123
 93      -0.000020082910
 94       0.000031240624
 95      -0.000160692968
 96       0.000119700759
 97       0.000035802337
 98       0.000010639494
 99       0.000034858353
100      -0.000009811932
101       0.000042275267
102       0.000064392412
103       0.000031410754
104      -0.000003460916
105       0.000071449673
106       0.000688358521
107       0.000301659972
108       0.007437477854
109       0.003644700349
110       0.010417337876
111       0.003933034512
112      -0.000141939454
113       0.000088569032
114      -0.000165642601
115      -0.000117728787
116      -0.000328015592
117       0.000002853119
118       0.000028152523
119      -0.000006404936
120      -0.000004680226
121      -0.000008230060
122      -0.000090357014
123       0.000052839626
124       0.000028345525
125       0.000058927666
126       0.000002847396
127       0.000003044461
128       0.000002738153
129      -0.000000532045
130      -0.000001158032
131       0.000041559645
132      -0.000404160535
133      -0.000024802657
134      -0.000047617055
135      -0.000001624422
136       0.000201329089
137       0.001086212666
138      -0.000051406764
139       0.000103228989
140       0.000071979210
141       0.000058054564
142       0.001455733414
143       0.000030347208
144      -0.000108534301
145       0.000021782472
146      -0.000063071221
147      -0.000115448414
148       0.000075240842
149      -0.000021828101
150      -0.000034559962
151       0.000033302819
152      -0.000063135862
153       0.000012719351
154       0.000012451620
155      -0.000001325885
156      -0.000215070888
157      -0.000212962352
158       0.000038949625
159      -0.000027664600
160       0.000037576070
161       0.000193057616
162       0.000673081431
163      -0.000053462461
164       0.000007592891
165      -0.000047168488
166       0.000010314479
167       0.000038510941
168       0.000000202441
169       0.000000561862
170      -0.000006724182
171      -0.000008060948
172      -0.000018036105
173       0.000000305489
174       0.000001303474
175       0.000001190193
176       0.000011114511
177       0.000030050464
178      -0.000007036604
179      -0.000002593596
180      -0.000000935731
181      -0.000464728616
182       0.000371267451
183      -0.001317998831
184       0.000979376653
185      -0.000660656618
 Sym=     1a
 Ene= -1.91284403322282E+01
 Spin= Alpha
 Occup= 2.000000
  1      -0.000003756296
  2      -0.000018126646
  3      -0.000006793957
  4      -0.000002940849
  5       0.000004239790
  6      -0.000171812413
  7       0.000058629478
  8       0.000019205947
  9      -0.000019131390
 10       0.000466611913
 11      -0.000282623133
 12      -0.000245942855
 13       0.000010444263
 14      -0.000049775718
 15       0.000041145821
 16       0.000004624004
 17       0.000030720074
 18       0.000001437171
 19      -0.000479237596
 20       0.000572120513
 21       0.000073875367
 22      -0.000229698793
 23       0.000039809538
 24      -0.003105099730
 25      -0.001528762983
 26       0.001891925614
 27      -0.000694159182
 28       0.000154384043
 29       0.000162529815
 30       0.000148158373
 31       0.000318200351
 32       0.000349137367
 33      -0.995192733363
 34      -0.030712871303
 35      -0.001937993653
 36      -0.000369128089
 37      -0.001156184655
 38       0.026135710191
 39       0.006656749454
 40       0.001069849883
 41       0.003886732487
 42      -0.000031642960
 43       0.000242432393
 44       0.000043505496
 45       0.000244719067
 46       0.000096259387
 47      -0.000007324419
 48      -0.000049386828
 49       0.000066859105
 50      -0.000081735158
 51      -0.000028784094
 52      -0.001461854700
 53      -0.001047240642
 54       0.000097499717
 55       0.000266002549
 56      -0.000041731902
 57       0.000045754735
 58       0.000002588386
 59      -0.000088039728
 60      -0.000097467396
 61      -0.000051110700
 62      -0.000539914675
 63       0.000127892090
 64      -0.000101800849
 65       0.000031189154
 66       0.001754654133
 67      -0.000014196934
 68       0.002440738579
 69       0.000268732794
 70       0.000085871143
 71      -0.000010019760
 72       0.000135960718
 73       0.000008621049
 74       0.000026985609
 75       0.000049022427
 76       0.000583818907
 77      -0.000138104744
 78       0.000210247580
 79       0.000047948218
 80      -0.004841358900
 81      -0.001007134152
 82      -0.005502642756
 83      -0.001246250193
 84       0.000025006245
 85       0.000216148617
 86      -0.000144191699
 87       0.000433420372
 88      -0.000009735896
 89       0.000046931266
 90       0.000351968768
 91      -0.000010599112
 92       0.000088521209
 93      -0.000042658683
 94      -0.002550324542
 95       0.001115079740
 96       0.000259615868
 97      -0.000040941005
 98       0.000083235536
 99      -0.000010152141
100       0.000025488099
101      -0.000044984555
102      -0.000011543005
103      -0.000289155851
104      -0.000704036211
105       0.000116928108
106      -0.000079688341
107       0.000001276484
108      -0.007732593742
109       0.012833405917
110       0.002220513216
111       0.008003021481
112      -0.000006439946
113       0.000573121336
114       0.000144568677
115       0.000537194973
116       0.000317465805
117       0.000006217669
118       0.000080660467
119      -0.000045914437
120       0.000003191906
121      -0.000008306050
122      -0.000126446857
123       0.000298170267
124      -0.000059458594
125       0.000053133682
126       0.000010725292
127       0.000005168731
128       0.000006942670
129      -0.000003941399
130       0.000011502761
131       0.000098775918
132       0.000598995299
133      -0.000045941850
134       0.000001171638
135      -0.000099662487
136      -0.000263004219
137       0.000624044679
138      -0.000000927505
139      -0.000075918772
140       0.000035011961
141       0.000575760358
142       0.000853191726
143       0.000134704262
144       0.000049431461
145      -0.000041475922
146       0.000135275994
147       0.000335405432
148       0.000070956328
149      -0.000026950906
150      -0.000054833125
151       0.000045298455
152       0.000042753834
153      -0.000048928936
154       0.000000239492
155      -0.000029093229
156      -0.000174739915
157       0.000059933762
158       0.000034998802
159       0.000013042994
160      -0.000034902494
161       0.000136696843
162       0.000031074400
163      -0.000017401503
164      -0.000079884255
165      -0.000026090364
166       0.000065514266
167      -0.000096529975
168      -0.000007012104
169      -0.000005410550
170      -0.000000053884
171      -0.000024631771
172      -0.000087935713
173      -0.000006617286
174       0.000009839901
175       0.000013630506
176       0.000015336016
177      -0.000069112853
178      -0.000014474248
179      -0.000002195516
180      -0.000013881562
181      -0.000086608563
182      -0.000131155687
183      -0.000049213418
184      -0.000155247300
185      -0.000046059535
 Sym=     1a
 Ene= -1.43142560494139E+01
 Spin= Alpha
 Occup= 2.000000
  1      -0.000009228807
  2      -0.000011779260
  3      -0.000031929582
  4      -0.000004083902
  5      -0.000008150740
  6      -0.000328233139
  7       0.000205050271
  8       0.000046159222
  9       0.000063617144
 10       0.000410938005
 11      -0.000070043539
 12      -0.000113266874
 13      -0.000104480346
 14       0.000045643417
 15      -0.000050054911
 16      -0.000028861178
 17      -0.000035614398
 18      -0.000012993274
 19      -0.000023223454
 20      -0.000398763651
 21      -0.000051228167
 22       0.000074459042
 23      -0.000009809715
 24       0.001742859359
 25       0.000113787576
 26      -0.001037675829
 27      -0.000040409497
 28      -0.000081664479
 29      -0.000016016498
 30       0.000039141878
 31      -0.000076360020
 32       0.000030015197
 33       0.000009247586
 34       0.000062059611
 35      -0.000002484738
 36       0.000073898802
 37      -0.000080113019
 38      -0.000802007614
 39      -0.000230684901
 40       0.000033890833
 41       0.000169171639
 42      -0.000003782005
 43       0.000052448593
 44       0.000013595954
 45       0.000000225620
 46       0.000045116396
 47       0.995156863557
 48       0.032811522539
 49       0.001152846983
 50       0.000233332454
 51       0.002242215115
 52      -0.021107090356
 53      -0.003347385393
 54      -0.004558435000
 55      -0.001209804393
 56       0.000275129369
 57      -0.000501950476
 58      -0.000192875496
 59       0.000457987221
 60      -0.001116747791
 61       0.000002819428
 62      -0.000188922356
 63       0.000244228213
 64       0.000174103036
 65      -0.000109490929
 66      -0.001307460194
 67      -0.001161106005
 68      -0.001690311704
 69      -0.000396191486
 70      -0.000041172224
 71       0.000055471808
 72       0.000057587278
 73      -0.000072066058
 74      -0.000073770688
 75      -0.000061173926
 76      -0.000951793506
 77      -0.000003643885
 78      -0.000056898584
 79       0.000042336529
 80       0.010244914361
 81      -0.002131536579
 82      -0.004146129755
 83       0.002007626319
 84       0.000275531227
 85       0.000062217008
 86      -0.000037494246
 87       0.000134311255
 88      -0.000262531845
 89      -0.000069121467
 90      -0.000639891734
 91       0.000067174752
 92      -0.000030671203
 93      -0.000103315173
 94       0.002621418057
 95      -0.001491223101
 96      -0.000825518442
 97       0.000904953732
 98      -0.000092581940
 99      -0.000036428762
100      -0.000063039480
101      -0.000018853802
102       0.000068573366
103      -0.000006728767
104      -0.000405152083
105      -0.000060754420
106       0.000206525470
107      -0.000054473701
108      -0.001082840956
109      -0.000853535345
110      -0.000982135514
111      -0.001309913132
112      -0.000043640024
113      -0.000053393778
114      -0.000077055431
115       0.000158938951
116       0.000044078309
117       0.000002390280
118       0.000008127298
119       0.000013251156
120       0.000012401134
121       0.000012937855
122      -0.000106753978
123       0.000002970843
124      -0.000127885547
125      -0.000066349349
126       0.000003883623
127      -0.000013859248
128      -0.000000308094
129      -0.000009307388
130       0.000011414315
131      -0.000056584099
132      -0.000540762753
133       0.000182611777
134       0.000048300130
135      -0.000023615895
136      -0.000111867619
137      -0.000649337283
138       0.000072038348
139       0.000099225579
140      -0.000104302469
141      -0.000670342384
142      -0.001118339864
143       0.000191458847
144       0.000319323867
145       0.000012759842
146      -0.000201596470
147      -0.000190829367
148       0.000030699925
149       0.000030844388
150      -0.000054545590
151      -0.000007715577
152       0.000487341755
153       0.000007007228
154       0.000051249101
155       0.000034171145
156      -0.000801499564
157       0.002098432263
158      -0.001029930936
159       0.000319901133
160       0.001700547374
161      -0.000765668091
162       0.002221425025
163       0.001523422714
164      -0.001162250485
165       0.000572319317
166       0.000003396871
167      -0.000034041317
168      -0.000017496362
169      -0.000003417969
170      -0.000001361072
171       0.000015532044
172       0.000060201119
173      -0.000008059466
174       0.000006837591
175      -0.000004662064
176      -0.000004235130
177      -0.000053259176
178       0.000007614086
179       0.000006438781
180      -0.000002506646
181       0.000023800100
182       0.000299511711