[Molden Format]
[Title]
 Molden file created by orca_2mkl for BaseName=/kaggle/working/Ala/Ala_InterFrag

[Atoms] AU
C    1   6         -2.3139121924        -9.2457159693         2.5887025280 
C    2   6         -2.4038328923       -12.0605076466         3.2655459356 
C    3   6         -0.1945123921       -12.7906798163         4.9384865141 
N    4   7         -4.7701964192       -12.6520393118         4.5685971197 
O    5   8         -0.3570821156       -13.7982743858         7.0054246459 
O    6   8          2.0468941064       -12.2464934261         3.8515561730 
H    7   1         -2.4056630650        -8.0841856548         4.2972229603 
H    8   1         -3.9358257347        -8.7771160076         1.3941542743 
H    9   1         -2.1307592619       -13.1488291243         1.5094193925 
H   10   1         -4.7757350591       -14.5256150995         5.0076559457 
H   11   1         -6.1974945794       -12.4009153580         3.3031850769 
H   12   1          3.3772936257       -12.7908373417         5.0024086128 
H   13   1         -0.5910045515        -8.7818475494         1.5516822201 
[GTO]
  1 0
s   6 1.0 
     3047.5249000000         0.5363343823
      457.3695100000         0.9894506076
      103.9486900000         1.5972822308
       29.2101550000         2.0791870615
        9.2866630000         1.7741742532
        3.1639270000         0.6125798260
s   3 1.0 
        7.8682724000        -0.3995563516
        1.8812885000        -0.1841552393
        0.5442493000         0.5163903794
p   3 1.0 
        7.8682724000         1.2960827175
        1.8812885000         0.9937536282
        0.5442493000         0.4959527138
s   1 1.0 
        0.1687144000         0.1876178721
p   1 1.0 
        0.1687144000         0.1541275509
d   1 1.0 
        0.8000000000         1.9292013661

  2 0
s   6 1.0 
     3047.5249000000         0.5363343823
      457.3695100000         0.9894506076
      103.9486900000         1.5972822308
       29.2101550000         2.0791870615
        9.2866630000         1.7741742532
        3.1639270000         0.6125798260
s   3 1.0 
        7.8682724000        -0.3995563516
        1.8812885000        -0.1841552393
        0.5442493000         0.5163903794
p   3 1.0 
        7.8682724000         1.2960827175
        1.8812885000         0.9937536282
        0.5442493000         0.4959527138
s   1 1.0 
        0.1687144000         0.1876178721
p   1 1.0 
        0.1687144000         0.1541275509
d   1 1.0 
        0.8000000000         1.9292013661

  3 0
s   6 1.0 
     3047.5249000000         0.5363343823
      457.3695100000         0.9894506076
      103.9486900000         1.5972822308
       29.2101550000         2.0791870615
        9.2866630000         1.7741742532
        3.1639270000         0.6125798260
s   3 1.0 
        7.8682724000        -0.3995563516
        1.8812885000        -0.1841552393
        0.5442493000         0.5163903794
p   3 1.0 
        7.8682724000         1.2960827175
        1.8812885000         0.9937536282
        0.5442493000         0.4959527138
s   1 1.0 
        0.1687144000         0.1876178721
p   1 1.0 
        0.1687144000         0.1541275509
d   1 1.0 
        0.8000000000         1.9292013661

  4 0
s   6 1.0 
     4173.5110000000         0.6790079572
      627.4579000000         1.2504643275
      142.9021000000         2.0203691378
       40.2343300000         2.6442129843
       12.8202100000         2.2650039968
        4.3904370000         0.7791872309
s   3 1.0 
       11.6263580000        -0.5158738103
        2.7162800000        -0.2550239186
        0.7722180000         0.6727344163
p   3 1.0 
       11.6263580000         2.0680595460
        2.7162800000         1.6100106206
        0.7722180000         0.7644899877
s   1 1.0 
        0.2120313000         0.2226947990
p   1 1.0 
        0.2120313000         0.2050879094
d   1 1.0 
        0.8000000000         1.9292013661

  5 0
s   6 1.0 
     5484.6717000000         0.8317352088
      825.2349500000         1.5308074829
      188.0469600000         2.4771490916
       52.9645000000         3.2562802462
       16.8975700000         2.7928936336
        5.7996353000         0.9549376963
s   3 1.0 
       15.5396160000        -0.6179336976
        3.5999336000        -0.2757210088
        1.0137618000         0.8142076427
p   3 1.0 
       15.5396160000         3.1169455889
        3.5999336000         2.4014372483
        1.0137618000         1.0543605133
s   1 1.0 
        0.2700058000         0.2669561389
p   1 1.0 
        0.2700058000         0.2774319373
d   1 1.0 
        0.8000000000         1.9292013661

  6 0
s   6 1.0 
     5484.6717000000         0.8317352088
      825.2349500000         1.5308074829
      188.0469600000         2.4771490916
       52.9645000000         3.2562802462
       16.8975700000         2.7928936336
        5.7996353000         0.9549376963
s   3 1.0 
       15.5396160000        -0.6179336976
        3.5999336000        -0.2757210088
        1.0137618000         0.8142076427
p   3 1.0 
       15.5396160000         3.1169455889
        3.5999336000         2.4014372483
        1.0137618000         1.0543605133
s   1 1.0 
        0.2700058000         0.2669561389
p   1 1.0 
        0.2700058000         0.2774319373
d   1 1.0 
        0.8000000000         1.9292013661

  7 0
s   3 1.0 
       18.7311370000         0.2149354183
        2.8253937000         0.3645711272
        0.6401217000         0.4150514277
s   1 1.0 
        0.1612778000         0.1813806839
p   1 1.0 
        1.1000000000         1.6057611426

  8 0
s   3 1.0 
       18.7311370000         0.2149354183
        2.8253937000         0.3645711272
        0.6401217000         0.4150514277
s   1 1.0 
        0.1612778000         0.1813806839
p   1 1.0 
        1.1000000000         1.6057611426

  9 0
s   3 1.0 
       18.7311370000         0.2149354183
        2.8253937000         0.3645711272
        0.6401217000         0.4150514277
s   1 1.0 
        0.1612778000         0.1813806839
p   1 1.0 
        1.1000000000         1.6057611426

 10 0
s   3 1.0 
       18.7311370000         0.2149354183
        2.8253937000         0.3645711272
        0.6401217000         0.4150514277
s   1 1.0 
        0.1612778000         0.1813806839
p   1 1.0 
        1.1000000000         1.6057611426

 11 0
s   3 1.0 
       18.7311370000         0.2149354183
        2.8253937000         0.3645711272
        0.6401217000         0.4150514277
s   1 1.0 
        0.1612778000         0.1813806839
p   1 1.0 
        1.1000000000         1.6057611426

 12 0
s   3 1.0 
       18.7311370000         0.2149354183
        2.8253937000         0.3645711272
        0.6401217000         0.4150514277
s   1 1.0 
        0.1612778000         0.1813806839
p   1 1.0 
        1.1000000000         1.6057611426

 13 0
s   3 1.0 
       18.7311370000         0.2149354183
        2.8253937000         0.3645711272
        0.6401217000         0.4150514277
s   1 1.0 
        0.1612778000         0.1813806839
p   1 1.0 
        1.1000000000         1.6057611426

[5D]
[7F]
[9G]
[MO]
 Sym=     1a
 Ene= -1.91871308387604E+01
 Spin= Alpha
 Occup= 2.000000
  1      -0.000050315856
  2      -0.000298325450
  3       0.000014038261
  4      -0.000090003602
  5      -0.000074720486
  6       0.001214322713
  7       0.000429542465
  8      -0.000044311039
  9       0.001100017991
 10       0.000008759427
 11       0.000034064549
 12      -0.000081508620
 13       0.000009770572
 14      -0.000055780024
 15       0.000056151596
 16       0.000873309335
 17       0.000183121690
 18       0.000000110609
 19       0.000188675231
 20      -0.002334293054
 21       0.000529230356
 22       0.000224205416
 23      -0.001881808314
 24      -0.000223628877
 25       0.000018108701
 26       0.000110000943
 27       0.000224340741
 28       0.000004509032
 29      -0.000041873750
 30      -0.000096014386
 31      -0.000642138006
 32      -0.000093016121
 33       0.000268855810
 34      -0.007061064215
 35      -0.009859033849
 36      -0.002508477527
 37       0.004883028176
 38       0.000096227232
 39      -0.000318516307
 40       0.000027662104
 41      -0.000233839095
 42       0.000135889376
 43       0.000025752108
 44       0.000383422033
 45       0.000254696238
 46       0.000005293318
 47       0.000066832586
 48       0.000280609527
 49      -0.001220888651
 50       0.000336180774
 51      -0.000734187934
 52       0.000088706281
 53       0.000041864629
 54       0.000066855284
 55      -0.000079582815
 56       0.000043563367
 57       0.000686228384
 58       0.000595125336
 59      -0.000110198955
 60       0.000042760853
 61      -0.000110995805
 62      -0.002605261604
 63       0.002219944075
 64      -0.000304853171
 65       0.000747476762
 66      -0.000090460393
 67      -0.000491478355
 68       0.000116178920
 69      -0.000059206993
 70       0.000238148267
 71      -0.995098312879
 72      -0.030228963024
 73       0.000332800094
 74       0.000861585469
 75      -0.001768594081
 76       0.021215597866
 77      -0.005810524641
 78      -0.001645987203
 79       0.003294633647
 80      -0.000121534744
 81      -0.001061200855
 82       0.000042786196
 83       0.000135152646
 84       0.000514069368
 85      -0.000222286431
 86      -0.000464131589
 87      -0.000019217296
 88       0.000009343948
 89      -0.000004355865
 90       0.000006162108
 91       0.000331441267
 92       0.000017134066
 93      -0.000004905110
 94      -0.000051377983
 95       0.000003676936
 96       0.000120391493
 97       0.000134718554
 98      -0.000040022165
 99       0.000138424942
100       0.000227201123
101      -0.000185850977
102       0.000026641642
103       0.000009276026
104       0.000029834846
105      -0.000219651704
106      -0.000699575783
107      -0.000007500873
108       0.000010313800
109      -0.000074787984
110       0.000461011559
111      -0.000416521876
112      -0.001054301229
113       0.000603548597
114      -0.001263802063
115       0.000058864156
116      -0.000298001791
117       0.000009523247
118      -0.000011288135
119      -0.000074521148
 Sym=     1a
 Ene= -1.91386148776788E+01
 Spin= Alpha
 Occup= 2.000000
  1      -0.000032559755
  2      -0.000238311123
  3      -0.000088435715
  4       0.000020419740
  5      -0.000074842884
  6      -0.000257020131
  7       0.000090702200
  8       0.000783812669
  9       0.001643891350
 10       0.000044194426
 11       0.000022616648
 12      -0.000123289414
 13       0.000077766691
 14       0.000075862533
 15       0.000018297810
 16      -0.000061041416
 17      -0.000057057869
 18       0.000047625762
 19       0.000044962602
 20       0.001827816906
 21       0.004813311187
 22       0.001111201257
 23      -0.003178563721
 24      -0.000327907806
 25      -0.000047540051
 26       0.000232194541
 27       0.000215120263
 28       0.000026917507
 29       0.000296569518
 30       0.000919154228
 31      -0.000072152984
 32       0.000021194304
 33       0.000012710063
 34       0.008298389707
 35      -0.001726245832
 36      -0.006367510980
 37       0.013050877986
 38      -0.000630288423
 39       0.000241781451
 40       0.000506503047
 41       0.000267343216
 42      -0.000124507081
 43      -0.000028177026
 44      -0.000336377752
 45       0.000008236521
 46      -0.000007956269
 47       0.000018022323
 48       0.003081987204
 49       0.000979573316
 50       0.000293024544
 51      -0.000923432555
 52      -0.000044964693
 53      -0.000118147963
 54      -0.000009226791
 55      -0.000065927535
 56       0.000034571378
 57       0.995180141447
 58       0.030596463064
 59       0.000184088798
 60       0.000960310831
 61      -0.001983066589
 62      -0.025529660315
 63      -0.000508410228
 64      -0.003277093790
 65       0.006762913202
 66      -0.000252615893
 67       0.000061532790
 68       0.000208789701
 69       0.000094296377
 70      -0.000031506939
 71       0.000638587099
 72      -0.000572286278
 73       0.000243183089
 74      -0.000018407029
 75       0.000050251336
 76       0.003078160189
 77      -0.001986871628
 78       0.000612833693
 79      -0.001296043213
 80      -0.000284673054
 81       0.000304835373
 82       0.000126610043
 83       0.000300270104
 84      -0.000149258887
 85      -0.000074964015
 86      -0.001138355655
 87      -0.000033683372
 88       0.000018757780
 89       0.000036542188
 90       0.000072208621
 91       0.000592807486
 92       0.000046703003
 93      -0.000069226206
 94      -0.000058482891
 95      -0.000261990400
 96      -0.000766530738
 97      -0.000068135340
 98      -0.000204033116
 99       0.000134682723
100      -0.000190615718
101      -0.000032090397
102      -0.000099466834
103      -0.000047256736
104       0.000011204885
105      -0.000138693897
106       0.000189522650
107       0.000055763662
108       0.000004558575
109       0.000012435818
110       0.000058853252
111       0.000184533088
112       0.000146362178
113       0.000028942941
114      -0.000053529452
115       0.000006801317
116       0.000210716173
117      -0.000012044234
118       0.000000811003
119      -0.000070864505
 Sym=     1a
 Ene= -1.43028986319189E+01
 Spin= Alpha
 Occup= 2.000000
  1       0.000044537003
  2       0.000619296259
  3      -0.000184052686
  4      -0.000261885752
  5       0.000166890678
  6      -0.000774230668
  7       0.000467576375
  8       0.000396503322
  9      -0.000283399554
 10       0.000038817032
 11       0.000022926559
 12      -0.000037139452
 13      -0.000089520094
 14       0.000096804184
 15       0.000066752924
 16       0.001079165964
 17       0.000071759868
 18       0.000102420915
 19       0.000017742672
 20      -0.010295944528
 21       0.003961004996
 22       0.002359613981
 23      -0.002579656213
 24      -0.000062571447
 25      -0.000380007882
 26      -0.000157726250
 27       0.000228037106
 28       0.000044080545
 29      -0.000008971034
 30       0.000358031812
 31      -0.000150695436
 32       0.000012833599
 33       0.000024899758
 34       0.002898987416
 35      -0.000353706012
 36      -0.000063217548
 37      -0.000693481832
 38      -0.000004306866
 39      -0.000011305738
 40      -0.000020204707
 41       0.000084302996
 42       0.000037262362
 43      -0.995146547224
 44      -0.032706212278
 45       0.000104342348
 46       0.001528307144
 47       0.001856564434
 48       0.020982420983
 49       0.004151512243
 50      -0.000216316632
 51      -0.003784595441
 52       0.000213225728
 53      -0.001078332961
 54       0.000435237122
 55       0.000558479877
 56       0.000198092289
 57       0.000007944814
 58       0.000253242088
 59      -0.000117698688
 60       0.000030293736
 61      -0.000046613062
 62      -0.000722168541
 63       0.000219502684
 64      -0.000195455778
 65       0.000477292589
 66      -0.000093217134
 67      -0.000012311942
 68       0.000089523168
 69      -0.000006491362
 70       0.000033850854
 71       0.000016991270
 72       0.000372458907
 73      -0.000115837362
 74      -0.000008894441
 75      -0.000063996060
 76      -0.001225230164
 77       0.001107772786
 78       0.000081709207
 79       0.000195804024
 80       0.000079296449
 81       0.000061503800
 82      -0.000002840760
 83      -0.000101146874
 84      -0.000050919581
 85       0.000158776585
 86       0.000128130990
 87      -0.000069856616
 88      -0.000088616851
 89       0.000053187899
 90       0.000096407831
 91       0.000474281355
 92      -0.000036000691
 93      -0.000117253231
 94       0.000089747504
 95       0.000667652266
 96       0.000537045909
 97      -0.000267295670
 98      -0.000070027302
 99       0.000202692936
100       0.000784247310
101      -0.002088482296
102      -0.000148009061
103       0.001973785135
104      -0.000244861784
105       0.000793677260
106      -0.002276528954
107       0.001275035960
108      -0.000202012567
109       0.001505800913
110      -0.000092683895
111      -0.000326513610
112       0.000004189558
113      -0.000037791701
114       0.000046683275
115       0.000030138728
116      -0.000721880869
117       0.000034621590
118       0.000068905470
119      -0.000026292902
 Sym=     1a
 Ene= -1.03156568618482E+01
 Spin= Alpha
 Occup= 2.000000
  1       0.000218160134
  2       0.001112589996
  3       0.000258477661
  4      -0.000201984769
  5       0.000241568353
  6      -0.002735098488
  7      -0.001599860378
  8       0.001337677757
  9      -0.001761389850
 10       0.000014833936
 11      -0.000048925684
 12       0.000090627123
 13      -0.000017684013
 14       0.000007448307
 15      -0.000865770209
 16       0.000570327235
 17       0.000447791793
 18      -0.000157322722
 19       0.000385460634
 20      -0.005080979462
 21      -0.004060648084
 22       0.001960266521
 23      -0.001290408135
 24      -0.000052264877
 25       0.000676804733
 26      -0.000355583131
 27       0.000428613148
 28      -0.000243730177
 29      -0.995142819235
 30      -0.036917387234
 31      -0.001303382703
 32       0.000440819222
 33      -0.001077985895
 34       0.010126619083
 35      -0.006514828912
 36       0.003857126287
 37      -0.007894764390
 38      -0.001053705826
 39       0.000758268203
 40       0.001657730266
 41      -0.000773881912
 42      -0.000363638900
 43       0.000033867975
 44       0.000518950747
 45       0.000249128285
 46       0.000017034462
 47       0.000060971358
 48      -0.001394841212
 49      -0.001450149914
 50      -0.000237366550
 51      -0.000130512968
 52       0.000054833757
 53      -0.000079205306
 54       0.000126065599
 55      -0.000134344582
 56       0.000022813011
 57      -0.000014088738
 58      -0.001159647115
 59      -0.000079931089
 60       0.000497259288
 61      -0.000952299163
 62       0.009284958061
 63       0.002037208214
 64       0.002308477339
 65      -0.004953406298
 66       0.001420830430
 67      -0.000464903976
 68      -0.001412963664
 69      -0.000203915484
 70       0.000243359731
 71      -0.000137069553
 72      -0.001088973681
 73      -0.000473125085
 74      -0.000086357473
 75       0.000090093945
 76       0.003976264590
 77      -0.002302211711
 78      -0.001541376470
 79       0.003322879761
 80      -0.000234065168
 81      -0.001411862600
 82      -0.000673061677
 83       0.001392409538
 84       0.000700460674
 85       0.000393637826
 86       0.000391052789
 87       0.000119618754
 88      -0.000070252986
 89       0.000074068012
 90      -0.000065664841
 91      -0.001379311616
 92      -0.000057804079
 93       0.000027587334
 94      -0.000016370978
 95       0.000479441750
 96      -0.000502593213
 97      -0.000169600739
 98       0.000092420840
 99      -0.000072473314
100       0.000195644900
101      -0.000140781501
102       0.000091935888
103      -0.000002002693
104       0.000023201437
105      -0.000070461581
106      -0.000688281802
107      -0.000012027345
108       0.000002115505
109       0.000026194725
110      -0.000564279988
111      -0.000010544494
112       0.000263268371
113       0.000018476223
114      -0.000056964930
115       0.000257414147
116       0.000565915020
117       0.000067856959
118      -0.000104128332
119       0.000149804680
 Sym=     1a
 Ene= -1.02153983761207E+01
 Spin= Alpha
 Occup= 2.000000
  1       0.001480537624
  2      -0.001121856928
  3       0.000057063741
  4       0.000181434747
  5      -0.000042488613
  6       0.010769781038
  7      -0.000260226671
  8      -0.004513850563
  9       0.002413663564
 10       0.000446709203
 11      -0.000012676779
 12       0.000172333226
 13       0.000695041280
 14      -0.000094870659
 15       0.995512548454
 16       0.040091039444
 17       0.000100007796
 18      -0.000190909199
 19       0.000110370948
 20      -0.042461609021
 21      -0.001967588023
 22      -0.002464029930
 23      -0.005058121154
 24       0.000351449705
 25      -0.000289084098
 26       0.000687214817
 27      -0.000022261893
 28      -0.000009313076
 29      -0.000834637883
 30      -0.001343944651
 31       0.000183440560
 32      -0.000046142810
 33       0.000238843857
 34       0.010937190689
 35      -0.008293713030
 36       0.001562522846
 37      -0.001693862917
 38      -0.000006605066
 39      -0.000758827389
 40       0.000115524556
 41      -0.000425550959
 42       0.000197163305
 43       0.000000139256
 44      -0.000490515092
 45      -0.000363549117
 46      -0.000152099378
 47       0.000156176417
 48       0.006753755742
 49       0.002519109266
 50       0.001066907423
 51      -0.000845889403
 52       0.000059889959
 53       0.000925248542
 54       0.000212765717
 55      -0.000733350037
 56      -0.000208194842
 57       0.000005580804
 58      -0.000092656217
 59      -0.000040901297
 60      -0.000053712450
 61       0.000120626819
 62      -0.001127985932
 63       0.001431289036
 64      -0.000260374402
 65       0.000278064435
 66      -0.000016589396
 67      -0.000304769270
 68      -0.000105057003
 69       0.000219214486
 70       0.000124919044
 71      -0.000035220494
 72      -0.000745586297
 73       0.000309170167
 74       0.000063031478
 75       0.000035182322
 76       0.002458648103
 77      -0.001371487512
 78      -0.000493047519
 79       0.000334794467
 80       0.000047860701
 81       0.000087720104
 82      -0.000185572658
 83       0.000174504109
 84       0.000000674470
 85      -0.000654380228
 86      -0.000325589455
 87      -0.000019640221
 88      -0.000043233814
 89       0.000091336254
 90      -0.000464382459
 91      -0.000089538921
 92      -0.000047669235
 93       0.000035562038
 94      -0.000123689902
 95      -0.000763296629
 96       0.004280264210
 97       0.000251284140
 98      -0.000811712924
 99      -0.001239673781
100      -0.000333443292
101       0.000469727718
102       0.000113059955
103      -0.000114558191
104      -0.000075646921
105      -0.000324769554
106       0.000439792395
107       0.000048330788
108       0.000039689951
109      -0.000173297641
110      -0.000083779455
111       0.001066473833
112      -0.000032379298
113      -0.000020313093
114       0.000094128678
115      -0.000468942925
116       0.000240452838
117       0.000042713959
118       0.000018437687
119      -0.000094627655
 Sym=     1a
 Ene= -1.01664922484457E+01
 Spin= Alpha
 Occup= 2.000000
  1      -0.995137130455
  2      -0.038385420290
  3      -0.000004179151
  4      -0.000269546556
  5      -0.000015018385
  6       0.029007441710
  7      -0.000072157802
  8      -0.002020533479
  9       0.000890719866
 10      -0.000303681670
 11       0.000027793575
 12      -0.000244397555
 13      -0.000581715621
 14       0.000012059201
 15       0.001472039250
 16       0.000275745953
 17      -0.000031833306
 18       0.000334411571
 19       0.000001654719
 20      -0.002474591023
 21       0.000611366740
 22      -0.003334620516
 23       0.002157337130
 24      -0.000469384417
 25       0.000024834383
 26      -0.000415576871
 27      -0.000547274179
 28       0.000009126671
 29      -0.000007875209
 30       0.001137115905
 31      -0.000131564880
 32       0.000223689418
 33      -0.000192261605
 34      -0.003587505589
 35       0.001414857883
 36      -0.001620925304
 37       0.001994232373
 38       0.000110006372
 39       0.000001332543
 40       0.000112196317
 41      -0.000002333476
 42       0.000000198063
 43       0.000035985854
 44       0.000581837726
 45       0.000123838980
 46       0.000250943330
 47      -0.000099958972
 48      -0.001257302568
 49      -0.000643659315
 50      -0.001307447237
 51       0.000690710978
 52       0.000095301540
 53       0.000018839257
 54       0.000143340039
 55       0.000039773788
 56      -0.000044034040
 57       0.000008018657
 58       0.000089523657
 59       0.000056086354
 60      -0.000089165561
 61      -0.000011584380
 62      -0.000710013963
 63      -0.000392201534
 64       0.000299519481
 65       0.000139662871
 66      -0.000008002449
 67       0.000058141620
 68      -0.000025438905
 69      -0.000041942571
 70      -0.000043997811
 71      -0.000014754452
 72      -0.000086607172
 73      -0.000058101512
 74       0.000055153653
 75       0.000048152696
 76       0.000992772476
 77      -0.000286153323
 78       0.000000673619
 79      -0.000174314203
 80      -0.000003841065
 81       0.000095903787
 82       0.000077608415
 83       0.000076075077
 84      -0.000011531908
 85       0.000912472211
 86      -0.004798921873
 87       0.000073720725
 88      -0.000693598847
 89      -0.001306183345
 90       0.001019914655
 91      -0.004356095095
 92       0.001238819169
 93      -0.000251662418
 94       0.000844748751
 95       0.000319775450
 96      -0.000203905166
 97       0.000002108027
 98      -0.000056597734
 99       0.000114982561
100      -0.000066162977
101      -0.001009867510
102      -0.000023023535
103      -0.000025037501
104       0.000018896159
105       0.000239901293
106       0.000370915193
107       0.000120752761
108       0.000127310721
109      -0.000051362806
110      -0.000083316001
111      -0.000212808975
112       0.000078361161
113       0.000001229326
114       0.000021926640
115       0.001052524288
116      -0.004446394235
117      -0.001317151049
118      -0.000229510611
119       0.000727981180
 Sym=     1a
 Ene= -1.10062289215219E+00
 Spin= Alpha
 Occup= 2.000000
  1      -0.003966739417
  2       0.007322652372
  3       0.002255284648
  4      -0.004823504938
  5       0.001909789721
  6       0.003001279847
  7       0.000523327972
  8      -0.000140588233
  9      -0.000482485769
 10      -0.000497779596
 11       0.000221365487
 12      -0.000380522951
 13      -0.000459686275
 14      -0.000463268341
 15      -0.018237567808
 16       0.035186552937
 17       0.019470849066
 18      -0.005921471882
 19       0.014395646180
 20       0.014059496734
 21      -0.002594233159
 22      -0.000347482840
 23       0.001984649813
 24      -0.000510579624
 25       0.003322549768
 26      -0.001595669137
 27       0.002888638624
 28      -0.001344506551
 29      -0.117552512025
 30       0.225958531159
 31       0.083759510676
 32      -0.020434889029
 33       0.042501730765
 34       0.047957802194
 35      -0.023642307461
 36       0.002734228553
 37      -0.006670603177
 38       0.005703616304
 39      -0.010550639182
 40      -0.012785874363
 41       0.009931763167
 42       0.005431605098
 43      -0.005853593487
 44       0.013574905548
 45       0.006748202918
 46      -0.000803935931
 47      -0.001460637725
 48       0.003908343163
 49      -0.004842787848
 50      -0.000305405375
 51      -0.001341405169
 52      -0.000021277500
 53      -0.000173885759
 54      -0.000088331394
 55       0.000569546453
 56      -0.000010988409
 57      -0.104875075094
 58       0.227448263767
 59       0.016782816364
 60       0.042414811840
 61      -0.087118416337
 62       0.203613040945
 63       0.013452183907
 64       0.014077621261
 65      -0.029000437536
 66       0.005926192348
 67      -0.003383788214
 68      -0.005177180907
 69      -0.002139815936
 70       0.001699549175
 71      -0.160345254459
 72       0.352903139874
 73      -0.044655013940
 74      -0.040810593072
 75       0.083730418024
 76       0.335347924019
 77      -0.032031645176
 78      -0.017483594157
 79       0.035993986496
 80       0.000091117937
 81      -0.007100814389
 82      -0.004025784965
 83       0.006089387730
 84       0.003527388273
 85       0.001511674860
 86       0.000692515738
 87       0.000064135596
 88      -0.000185264881
 89      -0.000175349550
 90       0.000803247613
 91      -0.000330607506
 92       0.000058032778
 93      -0.000026048446
 94       0.000055444473
 95       0.006865674821
 96       0.000644520157
 97       0.000406979130
 98       0.000661364803
 99       0.000930730687
100       0.004612399848
101      -0.000409539925
102       0.000495072936
103       0.000559369328
104       0.000005395838
105       0.001682124903
106      -0.002837551482
107       0.000276151858
108      -0.000029319127
109      -0.000002571414
110       0.097868222455
111       0.007158782388
112      -0.014996262338
113       0.004464334866
114      -0.009537072637
115       0.002593117126
116       0.000360110370
117       0.000093502509
118      -0.000396636190
119       0.000319759927
 Sym=     1a
 Ene= -1.01194855832632E+00
 Spin= Alpha
 Occup= 2.000000
  1      -0.000296560845
  2      -0.002026089871
  3       0.001344229799
  4       0.000504500878
  5      -0.001299887386
  6       0.003849057133
  7       0.003177086498
  8      -0.000728643997
  9       0.008362353173
 10      -0.000079502596
 11       0.000200192871
 12      -0.000249386863
 13       0.000383899532
 14      -0.000400132584
 15       0.008040692905
 16      -0.013524310223
 17       0.005101965118
 18       0.007167960148
 19      -0.014249662529
 20      -0.006667226288
 21       0.014021015182
 22       0.002553776011
 23      -0.010604580112
 24      -0.002077837270
 25      -0.001204538480
 26       0.001944846288
 27       0.000725250139
 28       0.000533033478
 29       0.048212927741
 30      -0.092764125473
 31       0.096804573999
 32       0.094067655250
 33      -0.190649647195
 34      -0.036546449101
 35      -0.010203302070
 36      -0.014483411501
 37       0.029018510179
 38      -0.021985104985
 39      -0.007054827817
 40       0.015153049706
 41       0.014277363274
 42       0.003416207999
 43       0.010000268660
 44      -0.020146271499
 45      -0.007042985471
 46       0.002427573981
 47       0.002147174644
 48      -0.008714441351
 49      -0.004309155770
 50       0.002130857354
 51      -0.004357843509
 52       0.000569283874
 53      -0.000160031923
 54       0.000328872059
 55      -0.001118200600
 56       0.000379666972
 57       0.166818186830
 58      -0.363219503456
 59       0.000595395291
 60      -0.054689067792