[Molden Format]
[Title]
 Molden file created by orca_2mkl for BaseName=/kaggle/working/Nal-2/Nal_InterFrag

[Atoms] AU
O    1   8         -3.6170284169         0.5164489243         3.5185510086 
O    2   8         -6.7991911661         1.3736835007         0.8141488206 
N    3   7         -6.1056238805        -3.7860681990        -1.0047957313 
C    4   6         -2.5045145165        -1.1848582860        -2.3529773778 
C    5   6         -0.3921521879         0.5841426939        -1.6086199229 
C    6   6          1.9289568485        -0.3518991315        -0.5715060952 
C    7   6         -4.0489574502        -2.1883255398        -0.0830421252 
C    8   6          3.8296207172         1.4189518903         0.2124316736 
C    9   6         -0.7382045067         3.1636736687        -1.8308611648 
C   10   6          2.4423746521        -2.9760975630        -0.2823458714 
C   11   6          3.3771352431         4.0525063558        -0.0548606394 
C   12   6          1.1379231580         4.9060937608        -1.0597829823 
C   13   6          6.1326167286         0.5031641496         1.2474025518 
C   14   6         -4.9963981036         0.0696760923         1.4291753086 
C   15   6          4.6959429866        -3.8027374733         0.7290960267 
C   16   6          6.5610724452        -2.0499276669         1.5070924966 
H   17   1         -3.8143838554        -0.1862816434        -3.6056768320 
H   18   1         -1.7960372917        -2.8282378313        -3.3862418333 
H   19   1         -2.8217012686        -3.3045735390         1.1429195939 
H   20   1         -2.5042216090         3.8679197968        -2.6062781586 
H   21   1          1.0443628171        -4.3533961098        -0.8720556985 
H   22   1          4.8319087820         5.3698741280         0.5485742686 
H   23   1          0.7929857776         6.9184272160        -1.2664982344 
H   24   1          7.5526249757         1.8666790340         1.8320271259 
H   25   1          5.0471637064        -5.8146721963         0.9300419449 
H   26   1         -7.3543832557        -2.6455958005        -1.9306576020 
H   27   1         -7.0732883830        -4.4681138245         0.5143626667 
H   28   1          8.3274693824        -2.7268275681         2.3025802716 
H   29   1         -4.2833250647         2.0271999307         4.3374317034 
[GTO]
  1 0
s   6 1.0 
     5484.6717000000         0.8317352088
      825.2349500000         1.5308074829
      188.0469600000         2.4771490916
       52.9645000000         3.2562802462
       16.8975700000         2.7928936336
        5.7996353000         0.9549376963
s   3 1.0 
       15.5396160000        -0.6179336976
        3.5999336000        -0.2757210088
        1.0137618000         0.8142076427
p   3 1.0 
       15.5396160000         3.1169455889
        3.5999336000         2.4014372483
        1.0137618000         1.0543605133
s   1 1.0 
        0.2700058000         0.2669561389
p   1 1.0 
        0.2700058000         0.2774319373
d   1 1.0 
        0.8000000000         1.9292013661

  2 0
s   6 1.0 
     5484.6717000000         0.8317352088
      825.2349500000         1.5308074829
      188.0469600000         2.4771490916
       52.9645000000         3.2562802462
       16.8975700000         2.7928936336
        5.7996353000         0.9549376963
s   3 1.0 
       15.5396160000        -0.6179336976
        3.5999336000        -0.2757210088
        1.0137618000         0.8142076427
p   3 1.0 
       15.5396160000         3.1169455889
        3.5999336000         2.4014372483
        1.0137618000         1.0543605133
s   1 1.0 
        0.2700058000         0.2669561389
p   1 1.0 
        0.2700058000         0.2774319373
d   1 1.0 
        0.8000000000         1.9292013661

  3 0
s   6 1.0 
     4173.5110000000         0.6790079572
      627.4579000000         1.2504643275
      142.9021000000         2.0203691378
       40.2343300000         2.6442129843
       12.8202100000         2.2650039968
        4.3904370000         0.7791872309
s   3 1.0 
       11.6263580000        -0.5158738103
        2.7162800000        -0.2550239186
        0.7722180000         0.6727344163
p   3 1.0 
       11.6263580000         2.0680595460
        2.7162800000         1.6100106206
        0.7722180000         0.7644899877
s   1 1.0 
        0.2120313000         0.2226947990
p   1 1.0 
        0.2120313000         0.2050879094
d   1 1.0 
        0.8000000000         1.9292013661

  4 0
s   6 1.0 
     3047.5249000000         0.5363343823
      457.3695100000         0.9894506076
      103.9486900000         1.5972822308
       29.2101550000         2.0791870615
        9.2866630000         1.7741742532
        3.1639270000         0.6125798260
s   3 1.0 
        7.8682724000        -0.3995563516
        1.8812885000        -0.1841552393
        0.5442493000         0.5163903794
p   3 1.0 
        7.8682724000         1.2960827175
        1.8812885000         0.9937536282
        0.5442493000         0.4959527138
s   1 1.0 
        0.1687144000         0.1876178721
p   1 1.0 
        0.1687144000         0.1541275509
d   1 1.0 
        0.8000000000         1.9292013661

  5 0
s   6 1.0 
     3047.5249000000         0.5363343823
      457.3695100000         0.9894506076
      103.9486900000         1.5972822308
       29.2101550000         2.0791870615
        9.2866630000         1.7741742532
        3.1639270000         0.6125798260
s   3 1.0 
        7.8682724000        -0.3995563516
        1.8812885000        -0.1841552393
        0.5442493000         0.5163903794
p   3 1.0 
        7.8682724000         1.2960827175
        1.8812885000         0.9937536282
        0.5442493000         0.4959527138
s   1 1.0 
        0.1687144000         0.1876178721
p   1 1.0 
        0.1687144000         0.1541275509
d   1 1.0 
        0.8000000000         1.9292013661

  6 0
s   6 1.0 
     3047.5249000000         0.5363343823
      457.3695100000         0.9894506076
      103.9486900000         1.5972822308
       29.2101550000         2.0791870615
        9.2866630000         1.7741742532
        3.1639270000         0.6125798260
s   3 1.0 
        7.8682724000        -0.3995563516
        1.8812885000        -0.1841552393
        0.5442493000         0.5163903794
p   3 1.0 
        7.8682724000         1.2960827175
        1.8812885000         0.9937536282
        0.5442493000         0.4959527138
s   1 1.0 
        0.1687144000         0.1876178721
p   1 1.0 
        0.1687144000         0.1541275509
d   1 1.0 
        0.8000000000         1.9292013661

  7 0
s   6 1.0 
     3047.5249000000         0.5363343823
      457.3695100000         0.9894506076
      103.9486900000         1.5972822308
       29.2101550000         2.0791870615
        9.2866630000         1.7741742532
        3.1639270000         0.6125798260
s   3 1.0 
        7.8682724000        -0.3995563516
        1.8812885000        -0.1841552393
        0.5442493000         0.5163903794
p   3 1.0 
        7.8682724000         1.2960827175
        1.8812885000         0.9937536282
        0.5442493000         0.4959527138
s   1 1.0 
        0.1687144000         0.1876178721
p   1 1.0 
        0.1687144000         0.1541275509
d   1 1.0 
        0.8000000000         1.9292013661

  8 0
s   6 1.0 
     3047.5249000000         0.5363343823
      457.3695100000         0.9894506076
      103.9486900000         1.5972822308
       29.2101550000         2.0791870615
        9.2866630000         1.7741742532
        3.1639270000         0.6125798260
s   3 1.0 
        7.8682724000        -0.3995563516
        1.8812885000        -0.1841552393
        0.5442493000         0.5163903794
p   3 1.0 
        7.8682724000         1.2960827175
        1.8812885000         0.9937536282
        0.5442493000         0.4959527138
s   1 1.0 
        0.1687144000         0.1876178721
p   1 1.0 
        0.1687144000         0.1541275509
d   1 1.0 
        0.8000000000         1.9292013661

  9 0
s   6 1.0 
     3047.5249000000         0.5363343823
      457.3695100000         0.9894506076
      103.9486900000         1.5972822308
       29.2101550000         2.0791870615
        9.2866630000         1.7741742532
        3.1639270000         0.6125798260
s   3 1.0 
        7.8682724000        -0.3995563516
        1.8812885000        -0.1841552393
        0.5442493000         0.5163903794
p   3 1.0 
        7.8682724000         1.2960827175
        1.8812885000         0.9937536282
        0.5442493000         0.4959527138
s   1 1.0 
        0.1687144000         0.1876178721
p   1 1.0 
        0.1687144000         0.1541275509
d   1 1.0 
        0.8000000000         1.9292013661

 10 0
s   6 1.0 
     3047.5249000000         0.5363343823
      457.3695100000         0.9894506076
      103.9486900000         1.5972822308
       29.2101550000         2.0791870615
        9.2866630000         1.7741742532
        3.1639270000         0.6125798260
s   3 1.0 
        7.8682724000        -0.3995563516
        1.8812885000        -0.1841552393
        0.5442493000         0.5163903794
p   3 1.0 
        7.8682724000         1.2960827175
        1.8812885000         0.9937536282
        0.5442493000         0.4959527138
s   1 1.0 
        0.1687144000         0.1876178721
p   1 1.0 
        0.1687144000         0.1541275509
d   1 1.0 
        0.8000000000         1.9292013661

 11 0
s   6 1.0 
     3047.5249000000         0.5363343823
      457.3695100000         0.9894506076
      103.9486900000         1.5972822308
       29.2101550000         2.0791870615
        9.2866630000         1.7741742532
        3.1639270000         0.6125798260
s   3 1.0 
        7.8682724000        -0.3995563516
        1.8812885000        -0.1841552393
        0.5442493000         0.5163903794
p   3 1.0 
        7.8682724000         1.2960827175
        1.8812885000         0.9937536282
        0.5442493000         0.4959527138
s   1 1.0 
        0.1687144000         0.1876178721
p   1 1.0 
        0.1687144000         0.1541275509
d   1 1.0 
        0.8000000000         1.9292013661

 12 0
s   6 1.0 
     3047.5249000000         0.5363343823
      457.3695100000         0.9894506076
      103.9486900000         1.5972822308
       29.2101550000         2.0791870615
        9.2866630000         1.7741742532
        3.1639270000         0.6125798260
s   3 1.0 
        7.8682724000        -0.3995563516
        1.8812885000        -0.1841552393
        0.5442493000         0.5163903794
p   3 1.0 
        7.8682724000         1.2960827175
        1.8812885000         0.9937536282
        0.5442493000         0.4959527138
s   1 1.0 
        0.1687144000         0.1876178721
p   1 1.0 
        0.1687144000         0.1541275509
d   1 1.0 
        0.8000000000         1.9292013661

 13 0
s   6 1.0 
     3047.5249000000         0.5363343823
      457.3695100000         0.9894506076
      103.9486900000         1.5972822308
       29.2101550000         2.0791870615
        9.2866630000         1.7741742532
        3.1639270000         0.6125798260
s   3 1.0 
        7.8682724000        -0.3995563516
        1.8812885000        -0.1841552393
        0.5442493000         0.5163903794
p   3 1.0 
        7.8682724000         1.2960827175
        1.8812885000         0.9937536282
        0.5442493000         0.4959527138
s   1 1.0 
        0.1687144000         0.1876178721
p   1 1.0 
        0.1687144000         0.1541275509
d   1 1.0 
        0.8000000000         1.9292013661

 14 0
s   6 1.0 
     3047.5249000000         0.5363343823
      457.3695100000         0.9894506076
      103.9486900000         1.5972822308
       29.2101550000         2.0791870615
        9.2866630000         1.7741742532
        3.1639270000         0.6125798260
s   3 1.0 
        7.8682724000        -0.3995563516
        1.8812885000        -0.1841552393
        0.5442493000         0.5163903794
p   3 1.0 
        7.8682724000         1.2960827175
        1.8812885000         0.9937536282
        0.5442493000         0.4959527138
s   1 1.0 
        0.1687144000         0.1876178721
p   1 1.0 
        0.1687144000         0.1541275509
d   1 1.0 
        0.8000000000         1.9292013661

 15 0
s   6 1.0 
     3047.5249000000         0.5363343823
      457.3695100000         0.9894506076
      103.9486900000         1.5972822308
       29.2101550000         2.0791870615
        9.2866630000         1.7741742532
        3.1639270000         0.6125798260
s   3 1.0 
        7.8682724000        -0.3995563516
        1.8812885000        -0.1841552393
        0.5442493000         0.5163903794
p   3 1.0 
        7.8682724000         1.2960827175
        1.8812885000         0.9937536282
        0.5442493000         0.4959527138
s   1 1.0 
        0.1687144000         0.1876178721
p   1 1.0 
        0.1687144000         0.1541275509
d   1 1.0 
        0.8000000000         1.9292013661

 16 0
s   6 1.0 
     3047.5249000000         0.5363343823
      457.3695100000         0.9894506076
      103.9486900000         1.5972822308
       29.2101550000         2.0791870615
        9.2866630000         1.7741742532
        3.1639270000         0.6125798260
s   3 1.0 
        7.8682724000        -0.3995563516
        1.8812885000        -0.1841552393
        0.5442493000         0.5163903794
p   3 1.0 
        7.8682724000         1.2960827175
        1.8812885000         0.9937536282
        0.5442493000         0.4959527138
s   1 1.0 
        0.1687144000         0.1876178721
p   1 1.0 
        0.1687144000         0.1541275509
d   1 1.0 
        0.8000000000         1.9292013661

 17 0
s   3 1.0 
       18.7311370000         0.2149354183
        2.8253937000         0.3645711272
        0.6401217000         0.4150514277
s   1 1.0 
        0.1612778000         0.1813806839
p   1 1.0 
        1.1000000000         1.6057611426

 18 0
s   3 1.0 
       18.7311370000         0.2149354183
        2.8253937000         0.3645711272
        0.6401217000         0.4150514277
s   1 1.0 
        0.1612778000         0.1813806839
p   1 1.0 
        1.1000000000         1.6057611426

 19 0
s   3 1.0 
       18.7311370000         0.2149354183
        2.8253937000         0.3645711272
        0.6401217000         0.4150514277
s   1 1.0 
        0.1612778000         0.1813806839
p   1 1.0 
        1.1000000000         1.6057611426

 20 0
s   3 1.0 
       18.7311370000         0.2149354183
        2.8253937000         0.3645711272
        0.6401217000         0.4150514277
s   1 1.0 
        0.1612778000         0.1813806839
p   1 1.0 
        1.1000000000         1.6057611426

 21 0
s   3 1.0 
       18.7311370000         0.2149354183
        2.8253937000         0.3645711272
        0.6401217000         0.4150514277
s   1 1.0 
        0.1612778000         0.1813806839
p   1 1.0 
        1.1000000000         1.6057611426

 22 0
s   3 1.0 
       18.7311370000         0.2149354183
        2.8253937000         0.3645711272
        0.6401217000         0.4150514277
s   1 1.0 
        0.1612778000         0.1813806839
p   1 1.0 
        1.1000000000         1.6057611426

 23 0
s   3 1.0 
       18.7311370000         0.2149354183
        2.8253937000         0.3645711272
        0.6401217000         0.4150514277
s   1 1.0 
        0.1612778000         0.1813806839
p   1 1.0 
        1.1000000000         1.6057611426

 24 0
s   3 1.0 
       18.7311370000         0.2149354183
        2.8253937000         0.3645711272
        0.6401217000         0.4150514277
s   1 1.0 
        0.1612778000         0.1813806839
p   1 1.0 
        1.1000000000         1.6057611426

 25 0
s   3 1.0 
       18.7311370000         0.2149354183
        2.8253937000         0.3645711272
        0.6401217000         0.4150514277
s   1 1.0 
        0.1612778000         0.1813806839
p   1 1.0 
        1.1000000000         1.6057611426

 26 0
s   3 1.0 
       18.7311370000         0.2149354183
        2.8253937000         0.3645711272
        0.6401217000         0.4150514277
s   1 1.0 
        0.1612778000         0.1813806839
p   1 1.0 
        1.1000000000         1.6057611426

 27 0
s   3 1.0 
       18.7311370000         0.2149354183
        2.8253937000         0.3645711272
        0.6401217000         0.4150514277
s   1 1.0 
        0.1612778000         0.1813806839
p   1 1.0 
        1.1000000000         1.6057611426

 28 0
s   3 1.0 
       18.7311370000         0.2149354183
        2.8253937000         0.3645711272
        0.6401217000         0.4150514277
s   1 1.0 
        0.1612778000         0.1813806839
p   1 1.0 
        1.1000000000         1.6057611426

 29 0
s   3 1.0 
       18.7311370000         0.2149354183
        2.8253937000         0.3645711272
        0.6401217000         0.4150514277
s   1 1.0 
        0.1612778000         0.1813806839
p   1 1.0 
        1.1000000000         1.6057611426

[5D]
[7F]
[9G]
[MO]
 Sym=     1a
 Ene= -1.91917760648613E+01
 Spin= Alpha
 Occup= 2.000000
  1       0.995104357338
  2       0.030327949919
  3      -0.001580888884
  4       0.001088884302
  5      -0.000662774844
  6      -0.021863971252
  7       0.004089112097
  8       0.000840043582
  9       0.005696022057
 10      -0.000470097595
 11      -0.000786833036
 12       0.000362476281
 13      -0.000544645794
 14      -0.000402394637
 15      -0.000578809354
 16      -0.000593422242
 17      -0.000057487567
 18       0.000150277280
 19       0.000069420280
 20       0.002701988538
 21       0.000046769767
 22      -0.001710956913
 23      -0.001686025612
 24      -0.000181425703
 25      -0.000306741423
 26       0.000247741989
 27      -0.000286712404
 28      -0.000268562903
 29      -0.000029316275
 30      -0.000368620089
 31      -0.000026621402
 32      -0.000109452188
 33      -0.000082835114
 34      -0.000239312850
 35      -0.000396929269
 36      -0.000143696479
 37       0.000851911133
 38       0.000056254013
 39       0.000063994985
 40       0.000125008605
 41       0.000015940597
 42      -0.000079526985
 43       0.000010727870
 44       0.000110750293
 45       0.000151081776
 46       0.000088723285
 47      -0.000039337237
 48      -0.000306823651
 49       0.002028331657
 50       0.001174879001
 51      -0.000062060536
 52      -0.000012075521
 53       0.000106202996
 54       0.000007773283
 55      -0.000083425492
 56      -0.000033390880
 57       0.000058508002
 58       0.000613760811
 59      -0.000186527725
 60      -0.000038912940
 61      -0.000016877187
 62      -0.002245638371
 63       0.001983959066
 64       0.001404207318
 65       0.000488197120
 66       0.000003894646
 67       0.000034821319
 68      -0.000003708657
 69       0.000006738940
 70      -0.000032644976
 71       0.000006778417
 72       0.000037337558
 73       0.000055585581
 74       0.000020974025
 75      -0.000002378962
 76      -0.000939027764
 77      -0.000801221121
 78      -0.001450275216
 79      -0.000077949482
 80      -0.000001349581
 81      -0.000021876133
 82       0.000002902041
 83       0.000012485362
 84      -0.000000843271
 85      -0.000052623294
 86      -0.000859326995
 87       0.000098658449
 88      -0.000292188941
 89       0.000057174450
 90       0.002244658173
 91      -0.002177705771
 92       0.001704945976
 93      -0.003701831113
 94      -0.000144947631
 95      -0.000027296323
 96      -0.000217821212
 97       0.000134254160
 98      -0.000185442434
 99      -0.000011466203
100      -0.000067947534
101      -0.000016630000
102       0.000007483324
103      -0.000000024765
104       0.001488775920
105      -0.000652652830
106      -0.000459228188
107      -0.000354097875
108      -0.000013192743
109       0.000014836316
110       0.000012518326
111      -0.000004187347
112       0.000011082114
113       0.000030120433
114       0.000348824663
115      -0.000067483570
116      -0.000026655778
117       0.000089312916
118      -0.001551033025
119      -0.000688567440
120      -0.000390653728
121      -0.000583046574
122       0.000020294641
123      -0.000021871866
124       0.000006506399
125      -0.000016817214
126       0.000049465829
127       0.000007607448
128       0.000065393136
129      -0.000009637665
130      -0.000018596202
131       0.000018454354
132      -0.000800909188
133       0.000343149091
134      -0.000285588368
135       0.000024258352
136       0.000004392828
137      -0.000014903193
138       0.000001914316
139      -0.000007187934
140       0.000025471184
141       0.000004985544
142       0.000035759591
143      -0.000002975226
144      -0.000015749024
145      -0.000002663649
146      -0.000233429105
147       0.000343938604
148       0.000338725016
149       0.000136935319
150       0.000007600899
151      -0.000001732570
152      -0.000009807018
153      -0.000000595126
154      -0.000002781224
155      -0.000010671803
156      -0.000072595202
157       0.000002894677
158      -0.000013107898
159      -0.000003527176
160       0.001267828455
161      -0.000438978050
162      -0.000520315101
163      -0.000053924902
164      -0.000022460035
165      -0.000001071033
166      -0.000017609367
167       0.000006238350
168       0.000010343535
169       0.000001929271
170       0.000011208191
171       0.000008005047
172      -0.000008004380
173       0.000003492218
174      -0.000040110368
175       0.000021711561
176       0.000238403694
177       0.000030745758
178      -0.000001707064
179      -0.000005675034
180      -0.000000115523
181      -0.000006325637
182      -0.000004178600
183       0.000027760091
184      -0.000075615662
185       0.000254869771
186       0.000120941539
187       0.000670819373
188       0.008142189192
189       0.006886177433
190       0.001685683692
191       0.009595077145
192      -0.000048415515
193      -0.000101979660
194       0.000325000747
195      -0.000258892195
196      -0.000144793679
197      -0.000003747050
198      -0.000028601131
199      -0.000003817121
200      -0.000007098741
201       0.000000925261
202      -0.000008525969
203      -0.000004122694
204       0.000092905430
205       0.000037112560
206      -0.000010099644
207       0.000003669168
208      -0.000000323065
209       0.000008012574
210      -0.000004212032
211      -0.000000229587
212      -0.000003945017
213       0.000001629478
214       0.000009315651
215       0.000003642129
216       0.000116560964
217       0.000015535862
218       0.000071342141
219      -0.000019106002
220       0.000000318722
221      -0.000000147622
222      -0.000000603068
223      -0.000002393233
224      -0.000001414783
225      -0.000014119209
226       0.000544155901
227      -0.000016622565
228      -0.000003068608
229       0.000038236620
230       0.000008128256
231       0.000199975282
232      -0.000076490514
233      -0.000025717999
234      -0.000005264376
235       0.000118224802
236       0.001767593079
237      -0.000014860658
238      -0.000059204985
239      -0.000052385850
240       0.000035201610
241      -0.000027862922
242       0.000012491967
243       0.000003274568
244       0.000053586881
245       0.000047927304
246       0.000011503680
247      -0.000005090660
248       0.000000574835
249       0.000005523869
250      -0.000037133848
251      -0.000159034929
252      -0.000000318508
253      -0.000004465861
254       0.000000325219
255      -0.000021490364
256       0.000053593472
257       0.000024027002
258       0.000011279896
259       0.000001437282
260      -0.000012370089
261      -0.000053522416
262      -0.000000979658
263      -0.000001279288
264      -0.000002347398
265       0.000005309047
266       0.000035337481
267       0.000004721223
268       0.000001324885
269      -0.000000499768
270      -0.000166908775
271       0.000396887198
272       0.000003905312
273       0.000014666386
274       0.000009831284
275      -0.000144088126
276      -0.000372716291
277       0.000005550349
278      -0.000023361860
279       0.000011459339
280      -0.000003804345
281      -0.000000500972
282      -0.000001601577
283      -0.000002436155
284       0.000001232938
285      -0.000448427867
286       0.000402439664
287      -0.000826419083
288       0.001443616181
289       0.000570765134
 Sym=     1a
 Ene= -1.91323103562125E+01
 Spin= Alpha
 Occup= 2.000000
  1      -0.000529578277
  2       0.000619577808
  3       0.000002102347
  4      -0.000221612675
  5      -0.000150597024
  6      -0.003452391095
  7      -0.000739554612
  8       0.002370700152
  9       0.001400283947
 10      -0.000137787521
 11       0.000181372986
 12      -0.000431723512
 13       0.000269096325
 14      -0.000164009500
 15      -0.995200534083
 16      -0.030831434185
 17      -0.001763647417
 18       0.001262697753
 19      -0.000622846294
 20       0.026734419922
 21       0.006262378765
 22      -0.004443459436
 23       0.002107515521
 24      -0.000158114718
 25       0.000142276898
 26      -0.000106371991
 27       0.000122382928
 28      -0.000276445446
 29      -0.000040065487
 30      -0.000399021422
 31       0.000031833004
 32      -0.000065367782
 33      -0.000089142382
 34       0.000079331356
 35      -0.000699513327
 36       0.000410694954
 37       0.000805359865
 38       0.000038341008
 39       0.000068193091
 40       0.000133661835
 41      -0.000079373848
 42      -0.000028987396
 43      -0.000100226103
 44      -0.000867990085
 45       0.000105739248
 46      -0.000093824214
 47      -0.000082392232
 48       0.003890405951
 49       0.000983464273
 50       0.002744659245
 51       0.001961790842
 52       0.000104099702
 53       0.000033781137
 54       0.000000101429
 55       0.000008378890
 56       0.000005513328
 57       0.000064146380
 58       0.000445037097
 59      -0.000012286801
 60       0.000014461893
 61       0.000012516163
 62      -0.003843466634
 63       0.003299216596
 64       0.000105153746
 65       0.000583232938
 66       0.000112600319
 67      -0.000009556428
 68      -0.000017417659
 69      -0.000008947745
 70      -0.000016013418
 71       0.000001598668
 72       0.000035277028
 73      -0.000022631232
 74       0.000040914255
 75      -0.000009800802
 76      -0.000648704237
 77       0.000625037967
 78      -0.001176530618
 79       0.000529490579
 80      -0.000013563190
 81      -0.000028790932
 82       0.000011852084
 83       0.000011272337
 84      -0.000018729113
 85       0.000090605217
 86       0.000896029589
 87      -0.000103131276
 88       0.000196822888
 89       0.000283597197
 90      -0.006726142011
 91      -0.002017304798
 92      -0.002329013562
 93      -0.004773572962
 94      -0.000357758590
 95      -0.000153624829
 96      -0.000166133656
 97       0.000039057649
 98      -0.000331357338
 99       0.000002950112
100       0.000027170931
101      -0.000017672964
102      -0.000008265338
103       0.000010755333
104      -0.000086874564
105      -0.000179939248
106       0.000069165934
107      -0.000216431044
108       0.000006033686
109       0.000002674640
110       0.000006027446
111       0.000013928099
112       0.000007346617
113      -0.000026874467
114      -0.000251621400
115       0.000120213807
116      -0.000037907522
117      -0.000080490861
118       0.001829274718
119      -0.000989862405
120      -0.001064996218
121       0.000252731222
122      -0.000025986111
123       0.000014884674
124      -0.000032559754
125      -0.000046122016
126       0.000027771411
127       0.000008249217
128       0.000037942330
129       0.000043508765
130       0.000001133508
131      -0.000022767888
132      -0.000883165081
133      -0.000380747796
134      -0.000713190336
135      -0.000076176941
136       0.000011054603
137      -0.000014344603
138       0.000001720199
139       0.000003292171
140       0.000016527497
141      -0.000003998320
142      -0.000021337692
143      -0.000005365204
144       0.000008981484
145      -0.000016044362
146       0.000287823501
147      -0.000197508646
148      -0.000069897840
149       0.000067749371
150      -0.000011782815
151      -0.000001610243
152      -0.000000685444
153       0.000007467091
154      -0.000001713468
155       0.000011952429
156       0.000103870481
157      -0.000019797458
158      -0.000028559189
159       0.000023419108
160       0.000027363602
161      -0.000114077177
162       0.000304477813
163      -0.000359803349
164       0.000030486836
165       0.000001585361
166       0.000019031437
167      -0.000003792923
168      -0.000013295391
169      -0.000000690359
170      -0.000002779389
171      -0.000002867574
172      -0.000006753825
173       0.000004323041
174       0.000240831649
175      -0.000118015521
176       0.000048019575
177      -0.000037010028
178      -0.000004137173
179      -0.000004205738
180       0.000002222819
181       0.000000992917
182      -0.000003473986
183      -0.000296364382
184      -0.000742943914
185       0.000127736550
186      -0.000116658869
187      -0.000108394101
188      -0.007017946522
189       0.012362567995
190      -0.009404905293
191       0.004416926093
192      -0.000288685834
193       0.000363163346
194      -0.000322706999
195       0.000280233344
196      -0.000500239430
197      -0.000003892477
198      -0.000018396630
199      -0.000022893577
200       0.000000705993
201       0.000006055130
202       0.000471649063
203       0.000043518275
204       0.000375832503
205      -0.000061931045
206      -0.000001336800
207       0.000007947792
208      -0.000007540121
209      -0.000000183610
210      -0.000004471346
211       0.000003067104
212       0.000021084787
213       0.000001337751
214       0.000008990088
215      -0.000000140483
216      -0.000291671639
217       0.000188302598
218       0.000037143690
219       0.000100988847
220       0.000002321782
221      -0.000005613744
222      -0.000004129371
223       0.000000740519
224      -0.000001072343
225      -0.000279692129
226       0.000000133628
227      -0.000031989302
228      -0.000097383905
229      -0.000081928272
230       0.000044857125
231       0.000807300420