
                                 *****************
                                 * O   R   C   A *
                                 *****************

                                            #,                                       
                                            ###                                      
                                            ####                                     
                                            #####                                    
                                            ######                                   
                                           ########,                                 
                                     ,,################,,,,,                         
                               ,,#################################,,                 
                          ,,##########################################,,             
                       ,#########################################, ''#####,          
                    ,#############################################,,   '####,        
                  ,##################################################,,,,####,       
                ,###########''''           ''''###############################       
              ,#####''   ,,,,##########,,,,          '''####'''          '####       
            ,##' ,,,,###########################,,,                        '##       
           ' ,,###''''                  '''############,,,                           
         ,,##''                                '''############,,,,        ,,,,,,###''
      ,#''                                            '''#######################'''  
     '                                                          ''''####''''         
             ,#######,   #######,   ,#######,      ##                                
            ,#'     '#,  ##    ##  ,#'     '#,    #''#        ,####,    ,#,          
            ##       ##  ##   ,#'  ##            #'  '#       #'       ,# #          
            ##       ##  #######   ##           ,######,      #####,      #          
            '#,     ,#'  ##    ##  '#,     ,#' ,#      #,     #,   #      #          
             '#######'   ##     ##  '#######'  #'      '#     '####' #    #          



                #########################################################
                #                        -***-                          #
                #          Department of theory and spectroscopy        #
                #                                                       #
                #                      Frank Neese                      #
                #                                                       #
                #     Directorship, Architecture, Infrastructure        #
                #                    SHARK, DRIVERS                     #
                #        Core code/Algorithms in most modules           #
                #                                                       #
                #        Max Planck Institute fuer Kohlenforschung      #
                #                Kaiser Wilhelm Platz 1                 #
                #                 D-45470 Muelheim/Ruhr                 #
                #                      Germany                          #
                #                                                       #
                #                  All rights reserved                  #
                #                        -***-                          #
                #########################################################


                         Program Version 6.1.1  -  RELEASE   -
                                (GIT: $487d211c$)
                          ($2025-11-21 10:33:24 +0100$)
                                                                         
                                  - NO-DMRG VERSION -                    
                                                                         


 With contributions from (in alphabetic order):
[Max-Planck-Institut fuer Kohlenforschung]                               
  Daniel Aravena         : Magnetic Suceptibility                        
  Michael Atanasov       : Ab Initio Ligand Field Theory (pilot matlab implementation)
  Alexander A. Auer      : GIAO ZORA, VPT2 properties, NMR spectrum      
  Ute Becker             : All parallelization in ORCA, NUMFREQ, NUMCALC 
  Giovanni Bistoni       : ED, misc. LED, open-shell LED, HFLD           
  Dmytro Bykov           : pre 5.0 version of the SCF Hessian            
  Marcos Casanova-Páez   : Triplet and SCS-CIS(D). UHF-(DLPNO)-IP/EA/STEOM-CCSD. UHF-CVS-IP/STEOM-CCSD   
  Vijay G. Chilkuri      : MRCI spin determinant printing, contributions to CSF-ICE 
  Pauline Colinet        : FMM embedding                                 
  Dipayan Datta          : RHF DLPNO-CCSD density                        
  Achintya Kumar Dutta   : EOM-CC, STEOM-CC                              
  Nicolas Foglia         : Exact transition moments, OPA infrastructure, MCD improvements    
  Dmitry Ganyushin       : Spin-Orbit,Spin-Spin,Magnetic field MRCI      
  Miquel Garcia-Rates    : C-PCM and meta-GGA Hessian, CCSD/C-PCM, Gaussian charge scheme 
  Tiago L. C. Gouveia    : GS-ROHF, GS-ROCIS                             
  Yang Guo               : DLPNO-NEVPT2, F12-NEVPT2, CIM, IAO-localization        
  Andreas Hansen         : Spin unrestricted coupled pair/coupled cluster methods 
  Ingolf Harden          : AUTO-CI MPn and infrastructure                
  Benjamin Helmich-Paris : MC-RPA, TRAH-(SCF,CASSCF), AVAS, COSX integrals, SCF dyn. polar., MC-PDFT, srDFT 
  Lee Huntington         : MR-EOM, pCC                                   
  Robert Izsak           : Overlap fitted RIJCOSX, COSX-SCS-MP3, EOM     
  Riya Kayal             : Wick's Theorem for AUTO-CI, AUTO-CI UHF-CCSDT 
  Emily Kempfer          : AUTO-CI RHF CISDT and CCSDT, approximate NEVPT4
  Christian Kollmar      : KDIIS, OOCD, Brueckner-CCSD(T), CCSD density, CASPT2, CASPT2-K, improved NEVPT2 
  Axel Koslowski         : Symmetry handling                             
  Simone Kossmann        : meta-GGA functionals, TD-DFT gradient, OOMP2, (MP2 Hessian; deprecated post 5.0) 
  Lucas Lang             : DCDCAS, Hyperfine gauge corrections, ICE-SOC+SSC
  Marvin Lechner         : AUTO-CI (C++ implementation), FIC-MRCC        
  Spencer Leger          : CASSCF response                               
  Dagmar Lenk            : GEPOL surface, SMD, ORCA-2-JSON               
  Dimitrios Liakos       : Extrapolation schemes; Compound Job, Property file
  Dimitrios Manganas     : Further ROCIS development; embedding schemes. LFT, Crystal Embedding 
  Dimitrios Pantazis     : SARC Basis sets                               
  Anastasios Papadopoulos: AUTO-CI, single reference methods and gradients 
  Taras Petrenko         : pre 6.0 DFT Hessian and TD-DFT gradient,  ECA, NRVS 
  Petra Pikulova         : Analytic Raman intensities                    
  Peter Pinski           : DLPNO-MP2, DLPNO-MP2 Gradient                 
  Shashank Vittal Rao    : ES-AILFT, MagRelax                            
  Christoph Reimann      : Effective Core Potentials                     
  Marius Retegan         : Local ZFS, SOC                                
  Christoph Riplinger    : Optimizer, TS searches, QM/MM, DLPNO-CCSD(T), (RO)-DLPNO pert. Triples 
  Michael Roemelt        : Original ROCIS implementation, recursive CI coupling coefficients
  Masaaki Saitow         : Open-shell DLPNO-CCSD energy and density      
  Barbara Sandhoefer     : DKH picture change effects                    
  Yorick L. A. Schmerwitz: GMF and freeze-and-release deltaSCF, NEB S-IDPP initial path                    
  Kantharuban Sivalingam : CASSCF convergence/infrastructure, NEVPT2, NEVPT3, NEVPT4(SD), FIC-MRCI and CEPA variants
  Bernardo de Souza      : ESD, SOC TD-DFT                               
  Georgi L. Stoychev     : AutoAux, RI-MP2 NMR, DLPNO-MP2 response, X2C  
  Van Anh Tran           : RI-MP2 g-tensors                              
  Willem Van den Heuvel  : Paramagnetic NMR                              
  Zikuan Wang            : NOTCH, Electric field optimization            
  Frank Wennmohs         : Technical directorship and infrastructure     
  Hang Xu                : AUTO-CI-Response properties                   
                                                                         
[FACCTs GmbH]                                                            
  Markus Bursch, Nicolas Foglia, Miquel Garcia-Rates, Ingolf Harden, Hagen Neugebauer, Anastasios Papadopoulos, 
  Christoph Riplinger, Bernardo de Souza, Georgi L. Stoychev                                                    
                                                                 
  APM, various basis sets, CI-OPT, improved COSX, DLPNO-Multilevel,           
  DOCKER, DRACO, updates on ESD, Fragmentator, GOAT, IRC, LR-CPCM, L-BFGS, MBIS, meta-GGA TD-DFT gradient, ML-optimized integration grids, 
  MM, NACMEs, nearIR, NEB, NEB-TS, NL-DFT gradient (VV10), 2- and 3-layer-ONIOM, interface openCOSMO-RS, QMMM,   
  Crystal-QMMM, RESP, rigid body optimization, SF, symmetry and pop. for TD-DFT, various functionals, SOLVATOR                                   
                                                                         
[Other institutions]                                                     
  V. Asgeirsson          : NEB                                           
  Christoph Bannwarth    : sTDA-DFT, sTD-DFT, PBEh-3c, B97-3c, D3        
  Giovanni Bistoni       : ETS/NOCV, ADLD/ADEX, COVALED                  
  Martin Brehm           : Molecular dynamics                            
  Ronald Cardenas        : ETS/NOCV                                      
  Martina Colucci        : COVALED                                       
  Sebastian Ehlert       : rSCAN, r2SCAN, r2SCAN-3c, D4, dhf basis sets  
  Marvin Friede          : D4 for Fr, Ra, Ac-Lr                          
  Lars Goerigk           : TD-DFT with DH, B97 family of functionals     
  Stefan Grimme          : VdW corrections, initial TS optimization, DFT functionals, gCP, sTDA/sTD-DF 
  Waldemar Hujo          : DFT-NL                                        
  H. Jonsson             : NEB                                           
  Holger Kruse           : gCP                                           
  Marcel Mueller         : wB97X-3c, vDZP basis set                      
  Hagen Neugebauer       : wr2SCAN, Native XTB                           
  Gianluca Regni         : ADLD/ADEX                                     
  Tobias Risthaus        : pre 6.0 range-separated hybrid DFT and stability analysis
  Lukas Wittmann         : regularized MP2, r2SCAN double-hybrids, wr2SCAN        
                                                                         
We gratefully acknowledge several colleagues who have allowed us to      
interface, adapt or use parts of their codes:                            
  Ed Valeev, F. Pavosevic, A. Kumar             : LibInt (2-el integral package), F12 methods 
  Garnet Chan, S. Sharma, J. Yang, R. Olivares  : DMRG                   
  Ulf Ekstrom                                   : XCFun DFT Library      
  Mihaly Kallay                                 : mrcc  (arbitrary order and MRCC methods)
  Frank Weinhold                                : gennbo (NPA and NBO analysis)           
  Simon Mueller                                 : openCOSMO-RS                            
  Christopher J. Cramer and Donald G. Truhlar   : smd solvation model                     
  S Lehtola, MJT Oliveira, MAL Marques          : LibXC Library                           
  Liviu Ungur et al                             : ANISO software                          


 Your calculation uses the libint2 library for the computation of 2-el integrals
 For citations please refer to: http://libint.valeyev.net

 Your ORCA version has been built with support for libXC version: 7.0.0
 For citations please refer to: https://libxc.gitlab.io

 This ORCA versions uses:
   CBLAS   interface :  Fast vector & matrix operations
   LAPACKE interface :  Fast linear algebra routines
   SCALAPACK package :  Parallel linear algebra routines
   Shared memory     :  Shared parallel matrices
   BLAS/LAPACK       :  OpenBLAS 0.3.29  USE64BITINT DYNAMIC_ARCH NO_AFFINITY SkylakeX SINGLE_THREADED
        Core in use  :  SkylakeX
   Copyright (c) 2011-2014, The OpenBLAS Project


  ***********************************
  * Starting time: Tue Mar 24 18:17:23 2026
  * Host name:     a5fad9bf0f4b
  * Process ID:    54
  * Working dir.:  /kaggle/working
  ***********************************

NOTE: MaxCore=3000 MB was set to SCF,MP2,MDCI,CIPSI,MRCI,RASCI and CIS
      => If you want to overwrite this, your respective input block should be placed after the MaxCore statement
Your calculation utilizes the atom-pairwise dispersion correction
with the Becke-Johnson damping scheme (D3BJ)


Your calculation utilizes the SMD solvation module
Please cite in your paper:
Marenich, A. V.; Cramer, C. J.; Truhlar, D. G. J. Phys. Chem. B 2009, 113, 6378 

Warning: RI is on but no J-basis has been assigned. Assigning Def2/J (nothing to worry about!)
================================================================================

----- Orbital basis set information -----
Your calculation utilizes the basis: 6-31G(d,p)
   H-He, Li-Ne : W. J. Hehre, R. Ditchfield and J.A. Pople, J. Chem. Phys. 56, 2257 (1972).
                 Note: He and Ne are unpublished basis sets taken from the Gaussian program.
                 Note: Li and B from J. D. Dill and J. A. Pople, J. Chem. Phys. 62, 2921 (1975).
   Na - Ar     : M. M. Francl, W. J. Pietro, W. J. Hehre, J. S. Binkley, M. S. Gordon, 
                 D. J. DeFrees and J. A. Pople, J. Chem. Phys. 77, 3654 (1982).
   K - Zn      : V. A. Rassolov, J. A. Pople, M. A. Ratner, and T. L. Windus, J. Chem. Phys. 109, 1223 (1998).

----- AuxJ basis set information -----
Your calculation utilizes the auxiliary basis: def2/J
   H-Rn: F. Weigend, Phys. Chem. Chem. Phys. 8, 1057 (2006).
   Fr-Lr: K. Eichkorn, F. Weigend, O. Treutler, R. Ahlrichs; Theor. Chem. Acc. 97, 119 (1997).

================================================================================
                                        WARNINGS
                       Please study these warnings very carefully!
================================================================================


WARNING: Geometry Optimization
  ===> : Switching off AutoStart
         For restart on a previous wavefunction, please use MOREAD

================================================================================
                                       INPUT FILE
================================================================================
NAME = /kaggle/working/Phe-NO2-1/Phe-NO2_InterFrag.inp
|  1> 
|  2> !RKS B3LYP 6-31G(d,p) TightSCF Opt D3BJ
|  3>  
|  4> %pal nprocs 2 end
|  5> %maxcore 3000
|  6> 
|  7> %cpcm
|  8>   smd true
|  9>   SMDsolvent "WATER"
| 10>   end
| 11> 
| 12> %scf
| 13>   MaxIter 1000
| 14>   SOSCF Start 0.00033
| 15>   end
| 16> end
| 17> 
| 18> %output
| 19>   PrintLevel Normal
| 20>   Print[ P_OrbEn ] 2        # print ALL orbital energies (not just up to LUMO+9) :contentReference[oaicite:10]{index=10}
| 21>   XYZFile true              # writes basename.xyz (handy for reuse) :contentReference[oaicite:11]{index=11}
| 22>   end
| 23> 
| 24> *xyz 0 1
| 25> O       -2.275900000     -1.634100000     -1.081000000
| 26> O       -4.068500000     -1.327500000      0.274900000
| 27> O        4.094200000     -1.421500000      0.143600000
| 28> O        4.395900000      0.560500000     -0.750600000
| 29> N       -3.974700000      1.359300000     -0.275500000
| 30> N        3.662300000     -0.293600000     -0.196600000
| 31> C       -1.802500000      0.988300000      0.801000000
| 32> C       -2.727600000      0.603000000     -0.363800000
| 33> C       -0.353600000      0.648500000      0.537400000
| 34> C        0.129700000     -0.594300000      0.911000000
| 35> C        0.461600000      1.587000000     -0.073300000
| 36> C        1.466900000     -0.907800000      0.667000000
| 37> C        1.798800000      1.273500000     -0.317500000
| 38> C       -3.107900000     -0.867300000     -0.329200000
| 39> C        2.301400000      0.026000000      0.052700000
| 40> H       -2.127400000      0.505000000      1.732700000
| 41> H       -1.863600000      2.068100000      0.996700000
| 42> H       -2.274300000      0.827100000     -1.336300000
| 43> H       -0.511300000     -1.327400000      1.392100000
| 44> H        0.078100000      2.559700000     -0.367400000
| 45> H        1.823800000     -1.889000000      0.969300000
| 46> H        2.419200000      2.025400000     -0.798700000
| 47> H       -3.774100000      2.356800000     -0.341600000
| 48> H       -4.398700000      1.222100000      0.641900000
| 49> H       -2.535300000     -2.579900000     -1.063800000
| 50> *
| 51> 
| 52>                          ****END OF INPUT****
================================================================================

                       *****************************
                       * Geometry Optimization Run *
                       *****************************

Geometry optimization settings:
Update method            Update   .... BFGS
Choice of coordinates    CoordSys .... (2022) Redundant Internals
Initial Hessian          InHess   .... Almloef's Model
Max. no of cycles        MaxIter  .... 75

Convergence Tolerances:
Energy Change            TolE     ....  5.0000e-06 Eh
Max. Gradient            TolMAXG  ....  3.0000e-04 Eh/bohr
RMS Gradient             TolRMSG  ....  1.0000e-04 Eh/bohr
Max. Displacement        TolMAXD  ....  4.0000e-03 bohr
RMS Displacement         TolRMSD  ....  2.0000e-03 bohr
Strict Convergence                .... False

------------------------------------------------------------------------------
                        ORCA OPTIMIZATION COORDINATE SETUP
------------------------------------------------------------------------------

The optimization will be done in redundant internal coordinates (2022)
Making redundant internal coordinates   ...  (2022 redundants) done
Evaluating the initial hessian          ...  (Almloef) done
Evaluating the coordinates              ...  done
Calculating the B-matrix                .... done
Calculating the G-matrix                .... done
The number of degrees of freedom        ....  116

    -----------------------------------------------------------------
                    Redundant Internal Coordinates


    -----------------------------------------------------------------
         Definition                    Initial Value    Approx d2E/dq
    -----------------------------------------------------------------
      1. B(N   5,O   2)                  1.2548         0.823708   
      2. B(N   5,O   3)                  1.2548         0.823539   
      3. B(C   7,N   4)                  1.4612         0.430837   
      4. B(C   7,C   6)                  1.5366         0.364676   
      5. B(C   8,C   6)                  1.5114         0.400027   
      6. B(C   9,C   8)                  1.3848         0.636816   
      7. B(C  10,C   8)                  1.3850         0.636326   
      8. B(C  11,C   9)                  1.3950         0.613508   
      9. B(C  12,C  10)                  1.3950         0.613429   
     10. B(C  13,C   7)                  1.5191         0.388864   
     11. B(C  13,O   1)                  1.2245         1.027715   
     12. B(C  13,O   0)                  1.3585         0.628345   
     13. B(C  14,C  12)                  1.3950         0.613517   
     14. B(C  14,C  11)                  1.3949         0.613657   
     15. B(C  14,N   5)                  1.4200         0.501238   
     16. B(H  15,C   6)                  1.0987         0.348737   
     17. B(H  16,C   6)                  1.0991         0.348273   
     18. B(H  17,C   7)                  1.0961         0.352107   
     19. B(H  18,C   9)                  1.0862         0.365197   
     20. B(H  19,C  10)                  1.0861         0.365235   
     21. B(H  20,C  11)                  1.0870         0.364123   
     22. B(H  21,C  12)                  1.0871         0.363947   
     23. B(H  22,N   4)                  1.0196         0.417690   
     24. B(H  23,N   4)                  1.0199         0.417234   
     25. B(H  24,O   0)                  0.9809         0.481567   
     26. A(C  13,O   0,H  24)          111.8763         0.366115   
     27. A(H  22,N   4,H  23)          105.7658         0.299806   
     28. A(C   7,N   4,H  23)          109.8490         0.335304   
     29. A(C   7,N   4,H  22)          109.5443         0.335365   
     30. A(O   2,N   5,C  14)          118.9865         0.431050   
     31. A(O   2,N   5,O   3)          122.0262         0.468521   
     32. A(O   3,N   5,C  14)          118.9873         0.431034   
     33. A(H  15,C   6,H  16)          105.3506         0.287871   
     34. A(C   8,C   6,H  16)          107.7720         0.326191   
     35. A(C   7,C   6,H  15)          110.7619         0.321346   
     36. A(C   7,C   6,H  16)          110.3565         0.321276   
     37. A(C   7,C   6,C   8)          112.8662         0.366116   
     38. A(C   8,C   6,H  15)          109.4195         0.326263   
     39. A(C   6,C   7,H  17)          111.8587         0.321852   
     40. A(C  13,C   7,H  17)          108.7613         0.325262   
     41. A(N   4,C   7,H  17)          107.5030         0.328817   
     42. A(C   6,C   7,C  13)          112.0961         0.364347   
     43. A(N   4,C   7,C  13)          106.6143         0.372583   
     44. A(N   4,C   7,C   6)          109.7703         0.368491   
     45. A(C   9,C   8,C  10)          121.4435         0.438211   
     46. A(C   6,C   8,C  10)          119.2624         0.403329   
     47. A(C   6,C   8,C   9)          119.2941         0.403384   
     48. A(C   8,C   9,C  11)          119.2781         0.435336   
     49. A(C   8,C   9,H  18)          121.2825         0.355358   
     50. A(C  11,C   9,H  18)          119.4392         0.353120   
     51. A(C   8,C  10,H  19)          121.2254         0.355318   
     52. A(C   8,C  10,C  12)          119.2817         0.435266   
     53. A(C  12,C  10,H  19)          119.4927         0.353118   
     54. A(C  14,C  11,H  20)          122.0286         0.352958   
     55. A(C   9,C  11,H  20)          117.9673         0.352944   
     56. A(C   9,C  11,C  14)          120.0041         0.432445   
     57. A(C  14,C  12,H  21)          122.0319         0.352916   
     58. A(C  10,C  12,C  14)          119.9926         0.432417   
     59. A(C  10,C  12,H  21)          117.9755         0.352907   
     60. A(O   1,C  13,C   7)          124.8462         0.434252   
     61. A(O   0,C  13,C   7)          112.3587         0.397868   
     62. A(O   0,C  13,O   1)          122.7747         0.470695   
     63. A(C  11,C  14,C  12)          119.9999         0.432446   
     64. A(N   5,C  14,C  12)          119.9997         0.414371   
     65. A(N   5,C  14,C  11)          120.0004         0.414388   
     66. D(C  13,C   7,C   6,H  16)   -157.4162         0.010651   
     67. D(N   4,C   7,C   6,H  16)    -39.1320         0.010651   
     68. D(C  13,C   7,C   6,H  15)    -41.1445         0.010651   
     69. D(C  13,C   7,N   4,H  23)     67.0225         0.015826   
     70. D(N   4,C   7,C   6,C   8)   -159.7827         0.010651   
     71. D(C   6,C   7,N   4,H  22)     61.1600         0.015826   
     72. D(H  17,C   7,N   4,H  22)    -60.7237         0.015826   
     73. D(C  13,C   7,N   4,H  22)   -177.2129         0.015826   
     74. D(C   6,C   7,N   4,H  23)    -54.6046         0.015826   
     75. D(C  13,C   7,C   6,C   8)     81.9331         0.010651   
     76. D(N   4,C   7,C   6,H  15)     77.1397         0.010651   
     77. D(C   9,C   8,C   6,H  16)    147.9234         0.011876   
     78. D(C   9,C   8,C   6,H  15)     33.8593         0.011876   
     79. D(C  10,C   8,C   6,C   7)     90.0058         0.011876   
     80. D(C   9,C   8,C   6,C   7)    -89.9615         0.011876   
     81. D(C  10,C   8,C   6,H  15)   -146.1734         0.011876   
     82. D(H  18,C   9,C   8,C  10)    179.8404         0.028157   
     83. D(H  18,C   9,C   8,C   6)     -0.1930         0.028157   
     84. D(C  11,C   9,C   8,C  10)      0.0048         0.028157   
     85. D(C  11,C   9,C   8,C   6)    179.9713         0.028157   
     86. D(H  19,C  10,C   8,C   9)    179.8257         0.028111   
     87. D(H  19,C  10,C   8,C   6)     -0.1409         0.028111   
     88. D(C  12,C  10,C   8,C   9)      0.0037         0.028111   
     89. D(C  12,C  10,C   8,C   6)   -179.9629         0.028111   
     90. D(H  20,C  11,C   9,H  18)      0.1359         0.026013   
     91. D(H  20,C  11,C   9,C   8)    179.9746         0.026013   
     92. D(C  14,C  11,C   9,H  18)   -179.8498         0.026013   
     93. D(C  14,C  11,C   9,C   8)     -0.0110         0.026013   
     94. D(H  21,C  12,C  10,C   8)    179.9447         0.026006   
     95. D(C  14,C  12,C  10,H  19)   -179.8310         0.026006   
     96. D(C  14,C  12,C  10,C   8)     -0.0058         0.026006   
     97. D(H  21,C  12,C  10,H  19)      0.1196         0.026006   
     98. D(O   1,C  13,C   7,N   4)    -31.8253         0.011254   
     99. D(O   0,C  13,C   7,H  17)     30.9196         0.011254   
    100. D(O   0,C  13,C   7,C   6)    -93.2940         0.011254   
    101. D(O   0,C  13,C   7,N   4)    146.5666         0.011254   
    102. D(C   7,C  13,O   0,H  24)   -179.1961         0.029024   
    103. D(O   1,C  13,C   7,C   6)     88.3141         0.011254   
    104. D(O   1,C  13,O   0,H  24)     -0.7658         0.029024   
    105. D(C  11,C  14,C  12,H  21)   -179.9488         0.026013   
    106. D(C  11,C  14,C  12,C  10)     -0.0004         0.026013   
    107. D(N   5,C  14,C  12,H  21)      0.0100         0.026013   
    108. D(N   5,C  14,C  12,C  10)    179.9585         0.026013   
    109. D(C  12,C  14,C  11,H  20)   -179.9762         0.026026   
    110. D(C  12,C  14,C  11,C   9)      0.0089         0.026026   
    111. D(N   5,C  14,C  11,H  20)      0.0649         0.026026   
    112. D(N   5,C  14,C  11,C   9)   -179.9500         0.026026   
    113. D(C  12,C  14,N   5,O   3)      0.0218         0.019865   
    114. D(C  12,C  14,N   5,O   2)   -179.9627         0.019865   
    115. D(C  11,C  14,N   5,O   3)    179.9807         0.019865   
    116. D(C  11,C  14,N   5,O   2)     -0.0038         0.019865   
    -----------------------------------------------------------------

Number of atoms                         .... 25
Number of degrees of freedom            .... 116


         *************************************************************
         *                GEOMETRY OPTIMIZATION CYCLE   1            *
         *************************************************************
---------------------------------
CARTESIAN COORDINATES (ANGSTROEM)
---------------------------------
  O     -2.275900   -1.634100   -1.081000
  O     -4.068500   -1.327500    0.274900
  O      4.094200   -1.421500    0.143600
  O      4.395900    0.560500   -0.750600
  N     -3.974700    1.359300   -0.275500
  N      3.662300   -0.293600   -0.196600
  C     -1.802500    0.988300    0.801000
  C     -2.727600    0.603000   -0.363800
  C     -0.353600    0.648500    0.537400
  C      0.129700   -0.594300    0.911000
  C      0.461600    1.587000   -0.073300
  C      1.466900   -0.907800    0.667000
  C      1.798800    1.273500   -0.317500
  C     -3.107900   -0.867300   -0.329200
  C      2.301400    0.026000    0.052700
  H     -2.127400    0.505000    1.732700
  H     -1.863600    2.068100    0.996700
  H     -2.274300    0.827100   -1.336300
  H     -0.511300   -1.327400    1.392100
  H      0.078100    2.559700   -0.367400
  H      1.823800   -1.889000    0.969300
  H      2.419200    2.025400   -0.798700
  H     -3.774100    2.356800   -0.341600
  H     -4.398700    1.222100    0.641900
  H     -2.535300   -2.579900   -1.063800

----------------------------
CARTESIAN COORDINATES (A.U.)
----------------------------
  NO LB      ZA    FRAG     MASS         X           Y           Z
   0 O     8.0000    0    15.999   -4.300828   -3.088001   -2.042794
   1 O     8.0000    0    15.999   -7.688351   -2.508611    0.519486
   2 O     8.0000    0    15.999    7.736917   -2.686246    0.271365
   3 O     8.0000    0    15.999    8.307047    1.059191   -1.418428
   4 N     7.0000    0    14.007   -7.511094    2.568705   -0.520620
   5 N     7.0000    0    14.007    6.920744   -0.554824   -0.371520
   6 C     6.0000    0    12.011   -3.406231    1.867616    1.513671
   7 C     6.0000    0    12.011   -5.154417    1.139505   -0.687482
   8 C     6.0000    0    12.011   -0.668207    1.225487    1.015539
   9 C     6.0000    0    12.011    0.245097   -1.123064    1.721541
  10 C     6.0000    0    12.011    0.872298    2.998995   -0.138517
  11 C     6.0000    0    12.011    2.772039   -1.715493    1.260447
  12 C     6.0000    0    12.011    3.399239    2.406566   -0.599988
  13 C     6.0000    0    12.011   -5.873080   -1.638959   -0.622098
  14 C     6.0000    0    12.011    4.349016    0.049133    0.099589
  15 H     1.0000    0     1.008   -4.020203    0.954312    3.274328
  16 H     1.0000    0     1.008   -3.521694    3.908143    1.883490
  17 H     1.0000    0     1.008   -4.297804    1.562992   -2.525241
  18 H     1.0000    0     1.008   -0.966217   -2.508422    2.630688
  19 H     1.0000    0     1.008    0.147588    4.837132   -0.694285
  20 H     1.0000    0     1.008    3.446483   -3.569693    1.831712
  21 H     1.0000    0     1.008    4.571625    3.827451   -1.509324
  22 H     1.0000    0     1.008   -7.132015    4.453707   -0.645530
  23 H     1.0000    0     1.008   -8.312338    2.309434    1.213015
  24 H     1.0000    0     1.008   -4.791023   -4.875304   -2.010291

--------------------------------
INTERNAL COORDINATES (ANGSTROEM)
--------------------------------
 O      0   0   0     0.000000000000     0.00000000     0.00000000
 O      1   0   0     2.268453907400     0.00000000     0.00000000
 O      1   2   0     6.490224798110   131.17768944     0.00000000
 O      3   1   2     2.195208539069    95.02604868   256.70912656
 N      2   1   3     2.744199854238    89.16553192    88.61521780
 N      3   1   2     1.254763746687    68.92746253   269.56864731
 C      5   2   1     2.452538703059    78.11958321   298.10753330
 C      5   2   1     1.461179314800    62.25900417   332.82905761
 C      7   5   2     1.511376925191   143.75900321    91.35355833
 C      9   7   5     1.384813232895   119.29405869   250.90669361
 C      9   7   5     1.385022664074   119.26238946    70.87398564
 C     10   9   7     1.394963114208   119.27813542   179.97132284
 C     11   9   7     1.394998111110   119.28166749   180.03710822
 C      2   1   3     1.224529791389    30.23278572    71.48825063
 C     12  10   9     1.394896834895   120.00413061     0.00000000
 H      7   5   2     1.098728260308   100.18587123   306.61430451
 H      7   5   2     1.099090414843    83.12526608   202.18121321
 H      8   5   2     1.096110373092   107.50303047   129.09223121
 H     10   9   7     1.086173936347   121.28246766   359.80697988
 H     11   9   7     1.086145639406   121.22537380   359.85909203
 H     12  10   9     1.086975777099   117.96731383   179.97464147
 H     13  11   9     1.087107726953   117.97550281   179.94466399
 H      5   2   1     1.019615525578   167.84299328   283.10846337
 H      5   2   1     1.019913035508    70.95404521   206.85506669
 H      1   2   3     0.980878096401    84.88596183   107.79827736

---------------------------
INTERNAL COORDINATES (A.U.)
---------------------------
 O      0   0   0     0.000000000000     0.00000000     0.00000000
 O      1   0   0     4.286756632410     0.00000000     0.00000000
 O      1   2   0    12.264747416012   131.17768944     0.00000000
 O      3   1   2     4.148342945685    95.02604868   256.70912656
 N      2   1   3     5.185786181256    89.16553192    88.61521780
 N      3   1   2     2.371159844011    68.92746253   269.56864731
 C      5   2   1     4.634626481623    78.11958321   298.10753330
 C      5   2   1     2.761228737523    62.25900417   332.82905761
 C      7   5   2     2.856088473739   143.75900321    91.35355833
 C      9   7   5     2.616917756801   119.29405869   250.90669361
 C      9   7   5     2.617313524375   119.26238946    70.87398564
 C     10   9   7     2.636098252774   119.27813542   179.97132284
 C     11   9   7     2.636164387335   119.28166749   180.03710822
 C      2   1   3     2.314025948554    30.23278572    71.48825063
 C     12  10   9     2.635973003025   120.00413061     0.00000000
 H      7   5   2     2.076295507582   100.18587123   306.61430451
 H      7   5   2     2.076979880471    83.12526608   202.18121321
 H      8   5   2     2.071348417694   107.50303047   129.09223121
 H     10   9   7     2.052571273499   121.28246766   359.80697988
 H     11   9   7     2.052517800030   121.22537380   359.85909203
 H     12  10   9     2.054086532923   117.96731383   179.97464147
 H     13  11   9     2.054335882010   117.97550281   179.94466399
 H      5   2   1     1.926794105237   167.84299328   283.10846337
 H      5   2   1     1.927356317527    70.95404521   206.85506669
 H      1   2   3     1.853590972961    84.88596183   107.79827736

---------------------
BASIS SET INFORMATION
---------------------
There are 4 groups of distinct atoms

 Group   1 Type O   : 10s4p1d contracted to 3s2p1d pattern {631/31/1}
 Group   2 Type N   : 10s4p1d contracted to 3s2p1d pattern {631/31/1}
 Group   3 Type C   : 10s4p1d contracted to 3s2p1d pattern {631/31/1}
 Group   4 Type H   : 4s1p contracted to 2s1p pattern {31/1}

Atom   0O    basis set group =>   1
Atom   1O    basis set group =>   1
Atom   2O    basis set group =>   1
Atom   3O    basis set group =>   1
Atom   4N    basis set group =>   2
Atom   5N    basis set group =>   2
Atom   6C    basis set group =>   3
Atom   7C    basis set group =>   3
Atom   8C    basis set group =>   3
Atom   9C    basis set group =>   3
Atom  10C    basis set group =>   3
Atom  11C    basis set group =>   3
Atom  12C    basis set group =>   3
Atom  13C    basis set group =>   3
Atom  14C    basis set group =>   3
Atom  15H    basis set group =>   4
Atom  16H    basis set group =>   4
Atom  17H    basis set group =>   4
Atom  18H    basis set group =>   4
Atom  19H    basis set group =>   4
Atom  20H    basis set group =>   4
Atom  21H    basis set group =>   4
Atom  22H    basis set group =>   4
Atom  23H    basis set group =>   4
Atom  24H    basis set group =>   4
---------------------------------
AUXILIARY/J BASIS SET INFORMATION
---------------------------------
There are 4 groups of distinct atoms

 Group   1 Type O   : 12s5p4d2f1g contracted to 6s4p3d1f1g pattern {711111/2111/211/2/1}
 Group   2 Type N   : 12s5p4d2f1g contracted to 6s4p3d1f1g pattern {711111/2111/211/2/1}
 Group   3 Type C   : 12s5p4d2f1g contracted to 6s4p3d1f1g pattern {711111/2111/211/2/1}
 Group   4 Type H   : 5s2p1d contracted to 3s1p1d pattern {311/2/1}

Atom   0O    basis set group =>   1
Atom   1O    basis set group =>   1
Atom   2O    basis set group =>   1
Atom   3O    basis set group =>   1
Atom   4N    basis set group =>   2
Atom   5N    basis set group =>   2
Atom   6C    basis set group =>   3
Atom   7C    basis set group =>   3
Atom   8C    basis set group =>   3
Atom   9C    basis set group =>   3
Atom  10C    basis set group =>   3
Atom  11C    basis set group =>   3
Atom  12C    basis set group =>   3
Atom  13C    basis set group =>   3
Atom  14C    basis set group =>   3
Atom  15H    basis set group =>   4
Atom  16H    basis set group =>   4
Atom  17H    basis set group =>   4
Atom  18H    basis set group =>   4
Atom  19H    basis set group =>   4
Atom  20H    basis set group =>   4
Atom  21H    basis set group =>   4
Atom  22H    basis set group =>   4
Atom  23H    basis set group =>   4
Atom  24H    basis set group =>   4


           ************************************************************
           *        Program running with 2 parallel MPI-processes     *
           *              working on a common directory               *
           ************************************************************
------------------------------------------------------------------------------
                             ORCA STARTUP CALCULATIONS
                           -- RI-GTO INTEGRALS CHOSEN --
------------------------------------------------------------------------------
------------------------------------------------------------------------------
                   ___                                                        
                  /   \      - P O W E R E D   B Y -                         
                 /     \                                                     
                 |  |  |   _    _      __       _____    __    __             
                 |  |  |  | |  | |    /  \     |  _  \  |  |  /  |          
                  \  \/   | |  | |   /    \    | | | |  |  | /  /          
                 / \  \   | |__| |  /  /\  \   | |_| |  |  |/  /          
                |  |  |   |  __  | /  /__\  \  |    /   |      \           
                |  |  |   | |  | | |   __   |  |    \   |  |\   \          
                \     /   | |  | | |  |  |  |  | |\  \  |  | \   \       
                 \___/    |_|  |_| |__|  |__|  |_| \__\ |__|  \__/        
                                                                              
                      - O R C A' S   B I G   F R I E N D -                    
                                      &                                       
                       - I N T E G R A L  F E E D E R -                       
                                                                              
 v1 FN, 2020, v2 2021, v3 2022-2024                                           
------------------------------------------------------------------------------


----------------------
SHARK INTEGRAL PACKAGE
----------------------

Number of atoms                             ...     25
Number of basis functions                   ...    260
Number of shells                            ...    120
Maximum angular momentum                    ...      2
Integral batch strategy                     ... SHARK/LIBINT Hybrid
RI-J (if used) integral strategy            ... SPLIT-RIJ (Revised 2003 algorithm where possible)
Printlevel                                  ...      1
Contraction scheme used                     ... SEGMENTED contraction
Prescreening option                         ... SCHWARTZ
   Thresh                                   ... 2.500e-11
   Tcut                                     ... 2.500e-12
   Tpresel                                  ... 2.500e-12 
Coulomb Range Separation                    ... NOT USED
Exchange Range Separation                   ... NOT USED
Multipole approximations                    ... NOT USED
Finite Nucleus Model                        ... NOT USED
CABS basis                                  ... NOT available
Auxiliary Coulomb fitting basis             ... AVAILABLE
   # of basis functions in Aux-J            ...    845
   # of shells in Aux-J                     ...    275
   Maximum angular momentum in Aux-J        ...      4
Auxiliary J/K fitting basis                 ... NOT available
Auxiliary Correlation fitting basis         ... NOT available
Auxiliary 'external' fitting basis          ... NOT available

Checking pre-screening integrals            ... done (  0.0 sec) Dimension = 120
   => SHARK Basis and OBASIS are compatible. Storing Pre-screening
Shell pair information
Shell pair cut-off parameter TPreSel        ...   2.5e-12
Total number of shell pairs                 ...      7260
Shell pairs after pre-screening             ...      5669
Total number of primitive shell pairs       ...     38295
Primitive shell pairs kept                  ...     18024
          la=0 lb=0:   1659 shell pairs
          la=1 lb=0:   2056 shell pairs
          la=1 lb=1:    675 shell pairs
          la=2 lb=0:    728 shell pairs
          la=2 lb=1:    463 shell pairs
          la=2 lb=2:     88 shell pairs

Checking whether 4 symmetric matrices of dimension 260 fit in memory
:Max Core in MB      =   3000.00
 MB in use           =     11.17
 MB left             =   2988.83
 MB needed           =      1.04
 Data fit in memory  = YES
Calculating RI/J V-Matrix + Cholesky decomp.... done (  0.1 sec)
Calculating Nuclear repulsion               ... done (  0.0 sec) ENN=    961.286897541907 Eh

Diagonalization of the overlap matrix:
Smallest eigenvalue                        ... 4.197e-04
Time for diagonalization                   ...    0.009 sec
Threshold for overlap eigenvalues          ... 1.000e-07
Number of eigenvalues below threshold      ... 0
Time for construction of square roots      ...    0.003 sec
Total time needed                          ...    0.013 sec

-------------------
DFT GRID GENERATION
-------------------

General Integration Accuracy     IntAcc      ... 4.388
Radial Grid Type                 RadialGrid  ... OptM3 with GC (2021)
Angular Grid (max. ang.)         AngularGrid ... 4 (Lebedev-302)
Angular grid pruning method      GridPruning ... 4 (adaptive)
Weight generation scheme         WeightScheme... mBecke (2022)
Basis function cutoff            BFCut       ... 1.0000e-11
Integration weight cutoff        WCut        ... 1.0000e-14
Partially contracted basis set               ... off
Rotationally invariant grid construction     ... off
Angular grids for H and He will be reduced by one unit

Total number of grid points                  ...   122163
Total number of batches                      ...     1921
Average number of points per batch           ...       63
Average number of grid points per atom       ...     4887

--------------------
COSX GRID GENERATION
--------------------

GRIDX 1
-------
General Integration Accuracy     IntAcc      ... 3.816
Radial Grid Type                 RadialGrid  ... OptM3 with GC (2021)
Angular Grid (max. ang.)         AngularGrid ... 1 (Lebedev-50)
Angular grid pruning method      GridPruning ... 4 (adaptive)
Weight generation scheme         WeightScheme... mBecke (2022)
Basis function cutoff            BFCut       ... 1.0000e-11
Integration weight cutoff        WCut        ... 1.0000e-14
Partially contracted basis set               ... on
Rotationally invariant grid construction     ... off
Angular grids for H and He will be reduced by one unit

Total number of grid points                  ...    15495
Total number of batches                      ...      136
Average number of points per batch           ...      113
Average number of grid points per atom       ...      620
UseSFitting                                  ... on

GRIDX 2
-------
General Integration Accuracy     IntAcc      ... 4.020
Radial Grid Type                 RadialGrid  ... OptM3 with GC (2021)
Angular Grid (max. ang.)         AngularGrid ... 2 (Lebedev-110)
Angular grid pruning method      GridPruning ... 4 (adaptive)
Weight generation scheme         WeightScheme... mBecke (2022)
Basis function cutoff            BFCut       ... 1.0000e-11
Integration weight cutoff        WCut        ... 1.0000e-14
Partially contracted basis set               ... on
Rotationally invariant grid construction     ... off
Angular grids for H and He will be reduced by one unit

Total number of grid points                  ...    34242
Total number of batches                      ...      280
Average number of points per batch           ...      122
Average number of grid points per atom       ...     1370
UseSFitting                                  ... on

GRIDX 3
-------
General Integration Accuracy     IntAcc      ... 4.338
Radial Grid Type                 RadialGrid  ... OptM3 with GC (2021)
Angular Grid (max. ang.)         AngularGrid ... 3 (Lebedev-194)
Angular grid pruning method      GridPruning ... 4 (adaptive)
Weight generation scheme         WeightScheme... mBecke (2022)
Basis function cutoff            BFCut       ... 1.0000e-11
Integration weight cutoff        WCut        ... 1.0000e-14
Partially contracted basis set               ... on
Rotationally invariant grid construction     ... off
Angular grids for H and He will be reduced by one unit

Total number of grid points                  ...    75204
Total number of batches                      ...      601
Average number of points per batch           ...      125
Average number of grid points per atom       ...     3008
UseSFitting                                  ... on
Grids setup in   2.7 sec
Initializing property integral containers    ... done (  0.0 sec)

SHARK setup successfully completed in   3.1 seconds

Maximum memory used throughout the entire STARTUP-calculation: 41.4 MB


           ************************************************************
           *        Program running with 2 parallel MPI-processes     *
           *              working on a common directory               *
           ************************************************************
-------------------------------------------------------------------------------
                                 ORCA GUESS
                   Start orbitals & Density for SCF / CASSCF
-------------------------------------------------------------------------------

------------
SCF SETTINGS
------------
Hamiltonian:
 Density Functional     Method          .... DFT(GTOs)
 Exchange Functional    Exchange        .... B88
   X-Alpha parameter    XAlpha          ....  0.666667
   Becke's b parameter  XBeta           ....  0.004200
 Correlation Functional Correlation     .... LYP
 LDA part of GGA corr.  LDAOpt          .... VWN-5
 Gradients option       PostSCFGGA      .... off
 Hybrid DFT is turned on
   Fraction HF Exchange ScalHFX         ....  0.200000
   Scaling of DF-GGA-X  ScalDFX         ....  0.720000
   Scaling of DF-GGA-C  ScalDFC         ....  0.810000
   Scaling of DF-LDA-C  ScalLDAC        ....  1.000000
   Perturbative correction              ....  0.000000
   NL short-range parameter             ....  4.800000
 RI-approximation to the Coulomb term is turned on
   Number of AuxJ basis functions       .... 845
   RIJ-COSX (HFX calculated with COS-X)).... on


General Settings:
 Integral files         IntName         .... /kaggle/working/Phe-NO2-1/Phe-NO2_InterFrag
 Hartree-Fock type      HFTyp           .... RHF
 Total Charge           Charge          ....    0
 Multiplicity           Mult            ....    1
 Number of Electrons    NEL             ....  110
 Basis Dimension        Dim             ....  260
 Nuclear Repulsion      ENuc            ....    961.2868975419 Eh

Convergence Acceleration:
 AO-DIIS                CNVDIIS         .... on
   Start iteration      DIISMaxIt       ....    12
   Startup error        DIISStart       ....  0.200000
   # of expansion vecs  DIISMaxEq       ....     5
   Bias factor          DIISBfac        ....   1.050
   Max. coefficient     DIISMaxC        ....  10.000
 MO-DIIS                CNVKDIIS        .... off
 Trust-Rad. Augm. Hess. CNVTRAH         .... auto
   Auto Start mean grad. ratio tolernc. ....  1.125000
   Auto Start start iteration           ....    50
   Auto Start num. interpolation iter.  ....    10
   Max. Number of Micro iterations      ....    24
   Max. Number of Macro iterations      .... Maxiter - #DIIS iter
   Number of Davidson start vectors     ....     2
   Converg. threshold    (grad. norm)   ....   1.000e-05
   Grad. Scal. Fac. for Micro threshold ....   0.100
   Minimum threshold for Micro iter.    ....   1.000e-02
   NR start threshold (gradient norm)   ....   1.000e-04
   Initial trust radius                 ....   0.400
   Minimum AH scaling param. (alpha)    ....   1.000
   Maximum AH scaling param. (alpha)    .... 1000.000
   Quad. conv. algorithm                .... NR
   White noise on init. David. guess    .... on
   Maximum white noise                  ....   0.010
   Pseudo random numbers                .... off
   Inactive MOs                         .... canonical
   Orbital update algorithm             .... Taylor
   Preconditioner                       .... Diag
   Full preconditioner red. dimension   ....   250
 SOSCF                 CNVSOSCF           .... on
   Start iteration     SOSCFMaxIt         ....   150
   Startup grad/error  SOSCFStart         ....  0.000330
   Hessian update      SOSCFHessUp        .... L-BFGS
   Autom. constraints  SOSCFAutoConstrain .... off
 Level Shifting         CNVShift        .... on
   Level shift para.    LevelShift      ....    0.2500
   Turn off err/grad.   ShiftErr        ....    0.0010
 Zerner damping         CNVZerner       .... off
 Static damping         CNVDamp         .... on
   Fraction old density DampFac         ....    0.7000
   Max. Damping (<1)    DampMax         ....    0.9800
   Min. Damping (>=0)   DampMin         ....    0.0000
   Turn off err/grad.   DampErr         ....    0.1000

SCF Procedure:
 Maximum # iterations   MaxIter         ....  1000
 SCF integral mode      SCFMode         .... Direct
   Integral package                     .... SHARK and LIBINT hybrid scheme
 Reset frequency        DirectResetFreq ....    20
 Integral Threshold     Thresh          ....  2.500e-11 Eh
 Primitive CutOff       TCut            ....  2.500e-12 Eh

Convergence Tolerance:
 Convergence Check Mode ConvCheckMode   .... Total+1el-Energy
 Convergence forced     ConvForced      .... 0
 Energy Change          TolE            ....  1.000e-08 Eh
 1-El. energy change                    ....  1.000e-05 Eh
 Orbital Gradient       TolG            ....  1.000e-05
 Orbital Rotation angle TolX            ....  1.000e-05
 DIIS Error             TolErr          ....  5.000e-07

------------------------------
INITIAL GUESS: MODEL POTENTIAL
------------------------------
Loading Hartree-Fock densities                     ... done
Calculating cut-offs                               ... done
Initializing the effective Hamiltonian             ... done
Setting up the integral package (SHARK)            ... done
Starting the Coulomb interaction                   ... done (   0.3 sec)
Making the grid                                    ... done (   0.4 sec)
Mapping shells                                     ... done
Starting the XC term evaluation                    ... done (   0.2 sec)
  promolecular density results
     # of electrons  =    110.002147420
     EX              =    -95.173982038
     EC              =     -3.815532768
     EX+EC           =    -98.989514806
Transforming the Hamiltonian                       ... done (   0.0 sec)
Diagonalizing the Hamiltonian                      ... done (   0.0 sec)
Back transforming the eigenvectors                 ... done (   0.0 sec)
Now organizing SCF variables                       ... done
                      ------------------
                      INITIAL GUESS DONE (   0.9 sec)
                      ------------------
             **** ENERGY FILE WAS UPDATED (/kaggle/working/Phe-NO2-1/Phe-NO2_InterFrag.en.tmp) ****
Finished Guess after   1.2 sec
Maximum memory used throughout the entire GUESS-calculation: 16.3 MB


           ************************************************************
           *        Program running with 2 parallel MPI-processes     *
           *              working on a common directory               *
           ************************************************************

-------------------------------------------------------------------------------------------
                                      ORCA LEAN-SCF
                              memory conserving SCF solver
-------------------------------------------------------------------------------------------

--------------------
CPCM SOLVATION MODEL
--------------------
CPCM parameters:
  Epsilon                                         ...      78.3550
  Refrac                                          ...       1.3328
  Rsolv                                           ...       1.3000
  Surface type                                    ... GAUSSIAN VDW
  Discretization scheme                           ... Constant charge density
    Threshold for H atoms                         ...       5.0000 (charges/Ang^2)
    Threshold for non-H atoms                     ...       5.0000 (charges/Ang^2)
  Epsilon function type                           ...         CPCM
Solvent:                                          ... WATER
SMD-CDS solvent descriptors:
  Soln                                            ...       1.3328
  Soln25                                          ...       1.3323
  Sola                                            ...       0.0000
  Solb                                            ...       0.0000
  Solg                                            ...       0.0000
  Solc                                            ...       0.0000
  Solh                                            ...       0.0000
Radii:
  Scheme                                          ... Element-dependent radii
  Radius for O  used is    2.8724 Bohr (=   1.5200 Ang.)
  Radius for N  used is    3.5716 Bohr (=   1.8900 Ang.)
  Radius for C  used is    3.4960 Bohr (=   1.8500 Ang.)
  Radius for H  used is    2.2677 Bohr (=   1.2000 Ang.)
Calculating surface                               ...        done! (  0.0s)
Cavity surface points                             ...         1900
Cavity Volume                                     ...    1325.7995
Cavity Surface-area                               ...     806.5764
Calculating surface distance matrix               ...        done! (  0.1s)
Performing Cholesky decomposition & store         ...        done! (  0.1s)
Overall time for CPCM initialization              ...                 0.2s

----------------------------------------D-I-I-S--------------------------------------------
Iteration    Energy (Eh)           Delta-E    RMSDP     MaxDP     DIISErr   Damp  Time(sec)
-------------------------------------------------------------------------------------------
               ***  Starting incremental Fock matrix formation  ***
    1    -758.4599366720030957     0.00e+00  3.83e-03  8.76e-02  2.58e-01  0.700   7.8
Warning: op=0 Small HOMO/LUMO gap (   0.076) - skipping pre-diagonalization
         Will do a full diagonalization
    2    -758.6775779873803458    -2.18e-01  2.32e-03  5.01e-02  1.16e-01  0.700   4.3
                               ***Turning on AO-DIIS***
    3    -758.7565157575263584    -7.89e-02  9.30e-04  1.62e-02  3.80e-02  0.700   4.1
    4    -758.8045888164990629    -4.81e-02  1.52e-03  2.02e-02  1.48e-02  0.000   4.0
    5    -758.9118769143956342    -1.07e-01  3.42e-04  6.22e-03  6.44e-03  0.000   4.0
    6    -758.9125054472790453    -6.29e-04  1.13e-04  2.12e-03  1.99e-03  0.000   3.6
    7    -758.9125421817611823    -3.67e-05  4.42e-05  8.13e-04  5.92e-04  0.000   3.4
               *** Restarting incremental Fock matrix formation ***
                             ****Resetting DIIS****
    8    -758.9125222057059545     2.00e-05  4.06e-05  9.73e-04  5.24e-04  0.000   7.7
    9    -758.9125216755751353     5.30e-07  1.68e-05  7.85e-04  8.62e-04  0.000   5.2
                              *** Initializing SOSCF ***
---------------------------------------S-O-S-C-F--------------------------------------
Iteration    Energy (Eh)           Delta-E    RMSDP     MaxDP     MaxGrad    Time(sec)
--------------------------------------------------------------------------------------
   10    -758.9125245156380970    -2.84e-06  4.28e-06  5.36e-05  6.40e-05     4.3
               *** Restarting incremental Fock matrix formation ***
   11    -758.9125245248635565    -9.23e-09  4.00e-06  8.96e-05  2.77e-05     7.7
   12    -758.9125244928802658     3.20e-08  2.47e-06  5.89e-05  4.85e-05     4.1
   13    -758.9125245424713739    -4.96e-08  9.04e-07  3.12e-05  6.66e-06     3.7
   14    -758.9125245308207468     1.17e-08  5.98e-07  2.57e-05  1.48e-05     3.1
   15    -758.9125245354987328    -4.68e-09  3.40e-07  1.01e-05  3.31e-06     2.9
                 **** Energy Check signals convergence ****

               *****************************************************
               *                     SUCCESS                       *
               *           SCF CONVERGED AFTER  15 CYCLES          *
               *****************************************************

Recomputing exchange energy using gridx3       ... done (   12.071 sec)
Old exchange energy                            :    -19.264483477 Eh
New exchange energy                            :    -19.264458891 Eh
Exchange energy change after final integration :      0.000024585 Eh
Total energy after final integration           :   -758.912499957 Eh

SMD CDS free energy correction energy :                 7.29847     Kcal/mol
Total Energy after SMD CDS correction =              -758.900869098 Eh
             **** ENERGY FILE WAS UPDATED (/kaggle/working/Phe-NO2-1/Phe-NO2_InterFrag.en.tmp) ****

----------------
TOTAL SCF ENERGY
----------------

Total Energy       :       -758.90086909775300 Eh          -20650.74251 eV

Components:
Nuclear Repulsion  :        961.28689754190714 Eh           26157.94633 eV
Electronic Energy  :      -1720.15499598173028 Eh          -46807.79710 eV
One Electron Energy:      -2942.37695410705965 Eh          -80066.14741 eV
Two Electron Energy:       1222.22195812532937 Eh           33258.35030 eV
CPCM Dielectric    :         -0.04442610241354 Eh              -1.20890 eV
SMD CDS (Gcds)     :          0.01163085899814 Eh               0.31649 eV

Virial components:
Potential Energy   :      -1513.13278425142562 Eh          -41174.43633 eV
Kinetic Energy     :        754.23191515367262 Eh           20523.69382 eV
Virial Ratio       :          2.00619034258598

DFT components:
N(Alpha)           :       54.999958276509 electrons
N(Beta)            :       54.999958276509 electrons
N(Total)           :      109.999916553018 electrons
E(X)               :      -76.643862109481 Eh       
E(C)               :       -4.490264297928 Eh       
E(XC)              :      -81.134126407408 Eh       

CPCM Solvation Model Properties:
Surface-charge          :         -0.03486262986430
Corrected charge        :          0.00000000000000
Outlying charge corr.   :          0.00007878372269 Eh               0.00214 eV
Free-energy (cav+disp)  :          0.01163085899814 Eh               0.31649 eV

---------------
SCF CONVERGENCE
---------------

  Last Energy change         ...    4.6780e-09  Tolerance :   1.0000e-08
  Last MAX-Density change    ...    1.0113e-05  Tolerance :   1.0000e-07
  Last RMS-Density change    ...    3.3991e-07  Tolerance :   5.0000e-09
  Last DIIS Error            ...    6.3979e-05  Tolerance :   5.0000e-07
  Last Orbital Gradient      ...    3.3062e-06  Tolerance :   1.0000e-05
  Last Orbital Rotation      ...    9.2478e-06  Tolerance :   1.0000e-05


----------------
ORBITAL ENERGIES
----------------

  NO   OCC          E(Eh)            E(eV) 
   0   2.0000     -19.190052      -522.1879 
   1   2.0000     -19.180993      -521.9414 
   2   2.0000     -19.180902      -521.9389 
   3   2.0000     -19.142694      -520.8992 
   4   2.0000     -14.570569      -396.4853 
   5   2.0000     -14.303675      -389.2228 
   6   2.0000     -10.322220      -280.8819 
   7   2.0000     -10.240511      -278.6585 
   8   2.0000     -10.222245      -278.1614 
   9   2.0000     -10.204706      -277.6842 
  10   2.0000     -10.204464      -277.6776 
  11   2.0000     -10.203012      -277.6381 
  12   2.0000     -10.191495      -277.3247 
  13   2.0000     -10.191050      -277.3126 
  14   2.0000     -10.182226      -277.0725 
  15   2.0000      -1.213280       -33.0150 
  16   2.0000      -1.096781       -29.8449 
  17   2.0000      -1.039137       -28.2764 
  18   2.0000      -1.012619       -27.5548 
  19   2.0000      -0.891362       -24.2552 
  20   2.0000      -0.882765       -24.0213 
  21   2.0000      -0.821310       -22.3490 
  22   2.0000      -0.759696       -20.6724 
  23   2.0000      -0.752403       -20.4739 
  24   2.0000      -0.702189       -19.1075 
  25   2.0000      -0.653362       -17.7789 
  26   2.0000      -0.623023       -16.9533 
  27   2.0000      -0.589771       -16.0485 
  28   2.0000      -0.575778       -15.6677 
  29   2.0000      -0.557384       -15.1672 
  30   2.0000      -0.528343       -14.3769 
  31   2.0000      -0.524379       -14.2691 
  32   2.0000      -0.516154       -14.0453 
  33   2.0000      -0.484879       -13.1942 
  34   2.0000      -0.475952       -12.9513 
  35   2.0000      -0.468832       -12.7576 
  36   2.0000      -0.458858       -12.4862 
  37   2.0000      -0.450154       -12.2493 
  38   2.0000      -0.432425       -11.7669 
  39   2.0000      -0.429999       -11.7009 
  40   2.0000      -0.417960       -11.3733 
  41   2.0000      -0.396954       -10.8017 
  42   2.0000      -0.384710       -10.4685 
  43   2.0000      -0.371840       -10.1183 
  44   2.0000      -0.365625        -9.9492 
  45   2.0000      -0.351624        -9.5682 
  46   2.0000      -0.348017        -9.4700 
  47   2.0000      -0.320875        -8.7315 
  48   2.0000      -0.318889        -8.6774 
  49   2.0000      -0.314191        -8.5496 
  50   2.0000      -0.293766        -7.9938 
  51   2.0000      -0.282639        -7.6910 
  52   2.0000      -0.269729        -7.3397 
  53   2.0000      -0.263706        -7.1758 
  54   2.0000      -0.233249        -6.3470 
  55   0.0000      -0.098660        -2.6847 
  56   0.0000      -0.014816        -0.4032 
  57   0.0000      -0.000079        -0.0022 
  58   0.0000       0.014279         0.3885 
  59   0.0000       0.094348         2.5673 
  60   0.0000       0.101504         2.7621 
  61   0.0000       0.108420         2.9503 
  62   0.0000       0.132320         3.6006 
  63   0.0000       0.139095         3.7850 
  64   0.0000       0.158021         4.3000 
  65   0.0000       0.160103         4.3566 
  66   0.0000       0.171633         4.6704 
  67   0.0000       0.184099         5.0096 
  68   0.0000       0.198017         5.3883 
  69   0.0000       0.200498         5.4558 
  70   0.0000       0.211279         5.7492 
  71   0.0000       0.220182         5.9915 
  72   0.0000       0.250526         6.8172 
  73   0.0000       0.255553         6.9540 
  74   0.0000       0.258964         7.0468 
  75   0.0000       0.262320         7.1381 
  76   0.0000       0.277744         7.5578 
  77   0.0000       0.318990         8.6802 
  78   0.0000       0.328390         8.9359 
  79   0.0000       0.345223         9.3940 
  80   0.0000       0.358390         9.7523 
  81   0.0000       0.368423        10.0253 
  82   0.0000       0.371486        10.1087 
  83   0.0000       0.488782        13.3004 
  84   0.0000       0.490110        13.3366 
  85   0.0000       0.507865        13.8197 
  86   0.0000       0.517593        14.0844 
  87   0.0000       0.528996        14.3947 
  88   0.0000       0.535839        14.5809 
  89   0.0000       0.541635        14.7386 
  90   0.0000       0.566358        15.4114 
  91   0.0000       0.580796        15.8043 
  92   0.0000       0.584078        15.8936 
  93   0.0000       0.590933        16.0801 
  94   0.0000       0.602951        16.4071 
  95   0.0000       0.607884        16.5414 
  96   0.0000       0.631726        17.1901 
  97   0.0000       0.638103        17.3637 
  98   0.0000       0.642252        17.4766 
  99   0.0000       0.648383        17.6434 
 100   0.0000       0.652853        17.7650 
 101   0.0000       0.687782        18.7155 
 102   0.0000       0.706672        19.2295 
 103   0.0000       0.716384        19.4938 
 104   0.0000       0.724397        19.7118 
 105   0.0000       0.744620        20.2621 
 106   0.0000       0.752064        20.4647 
 107   0.0000       0.762218        20.7410 
 108   0.0000       0.768984        20.9251 
 109   0.0000       0.787797        21.4370 
 110   0.0000       0.793243        21.5852 
 111   0.0000       0.805393        21.9158 
 112   0.0000       0.813713        22.1422 
 113   0.0000       0.825570        22.4649 
 114   0.0000       0.826389        22.4872 
 115   0.0000       0.833704        22.6862 
 116   0.0000       0.847474        23.0609 
 117   0.0000       0.858621        23.3643 
 118   0.0000       0.863695        23.5023 
 119   0.0000       0.881397        23.9840 
 120   0.0000       0.896431        24.3931 
 121   0.0000       0.908378        24.7182 
 122   0.0000       0.921359        25.0714 
 123   0.0000       0.931345        25.3432 
 124   0.0000       0.943530        25.6748 
 125   0.0000       0.943800        25.6821 
 126   0.0000       0.957258        26.0483 
 127   0.0000       0.976505        26.5721 
 128   0.0000       0.980118        26.6704 
 129   0.0000       0.991440        26.9785 
 130   0.0000       0.993952        27.0468 
 131   0.0000       0.999718        27.2037 
 132   0.0000       1.010777        27.5046 
 133   0.0000       1.045676        28.4543 
 134   0.0000       1.064675        28.9713 
 135   0.0000       1.082623        29.4597 
 136   0.0000       1.107426        30.1346 
 137   0.0000       1.109277        30.1850 
 138   0.0000       1.144144        31.1337 
 139   0.0000       1.148526        31.2530 
 140   0.0000       1.191157        32.4130 
 141   0.0000       1.205712        32.8091 
 142   0.0000       1.234946        33.6046 
 143   0.0000       1.237696        33.6794 
 144   0.0000       1.263385        34.3784 
 145   0.0000       1.303126        35.4599 
 146   0.0000       1.354564        36.8596 
 147   0.0000       1.362609        37.0785 
 148   0.0000       1.363871        37.1128 
 149   0.0000       1.368666        37.2433 
 150   0.0000       1.387719        37.7617 
 151   0.0000       1.394233        37.9390 
 152   0.0000       1.415504        38.5178 
 153   0.0000       1.423863        38.7453 
 154   0.0000       1.433329        39.0029 
 155   0.0000       1.447417        39.3862 
 156   0.0000       1.478806        40.2403 
 157   0.0000       1.481807        40.3220 
 158   0.0000       1.493246        40.6333 
 159   0.0000       1.563640        42.5488 
 160   0.0000       1.600013        43.5386 
 161   0.0000       1.604481        43.6601 
 162   0.0000       1.690413        45.9985 
 163   0.0000       1.705311        46.4039 
 164   0.0000       1.713388        46.6237 
 165   0.0000       1.716332        46.7038 
 166   0.0000       1.737703        47.2853 
 167   0.0000       1.749901        47.6172 
 168   0.0000       1.769025        48.1376 
 169   0.0000       1.772377        48.2288 
 170   0.0000       1.784694        48.5640 
 171   0.0000       1.793519        48.8041 
 172   0.0000       1.800218        48.9864 
 173   0.0000       1.819053        49.4989 
 174   0.0000       1.822765        49.6000 
 175   0.0000       1.833344        49.8878 
 176   0.0000       1.859150        50.5900 
 177   0.0000       1.885402        51.3044 
 178   0.0000       1.892131        51.4875 
 179   0.0000       1.906042        51.8660 
 180   0.0000       1.914077        52.0847 
 181   0.0000       1.920788        52.2673 
 182   0.0000       1.939043        52.7640 
 183   0.0000       1.950714        53.0816 
 184   0.0000       1.968349        53.5615 
 185   0.0000       1.973284        53.6958 
 186   0.0000       1.983119        53.9634 
 187   0.0000       2.001421        54.4614 
 188   0.0000       2.002010        54.4775 
 189   0.0000       2.011679        54.7406 
 190   0.0000       2.048795        55.7505 
 191   0.0000       2.097061        57.0639 
 192   0.0000       2.110664        57.4341 
 193   0.0000       2.114152        57.5290 
 194   0.0000       2.122158        57.7469 
 195   0.0000       2.130502        57.9739 
 196   0.0000       2.145256        58.3754 
 197   0.0000       2.194277        59.7093 
 198   0.0000       2.216975        60.3270 
 199   0.0000       2.247534        61.1585 
 200   0.0000       2.269286        61.7504 
 201   0.0000       2.280990        62.0689 
 202   0.0000       2.290706        62.3333 
 203   0.0000       2.302161        62.6450 
 204   0.0000       2.313797        62.9616 
 205   0.0000       2.333190        63.4893 
 206   0.0000       2.356872        64.1338 
 207   0.0000       2.368788        64.4580 
 208   0.0000       2.372625        64.5624 
 209   0.0000       2.383609        64.8613 
 210   0.0000       2.411912        65.6315 
 211   0.0000       2.416366        65.7527 
 212   0.0000       2.433345        66.2147 
 213   0.0000       2.461613        66.9839 
 214   0.0000       2.468853        67.1809 
 215   0.0000       2.502836        68.1056 
 216   0.0000       2.509821        68.2957 
 217   0.0000       2.530019        68.8453 
 218   0.0000       2.532020        68.8998 
 219   0.0000       2.557934        69.6049 
 220   0.0000       2.571773        69.9815 
 221   0.0000       2.587867        70.4194 
 222   0.0000       2.589645        70.4678 
 223   0.0000       2.603039        70.8323 
 224   0.0000       2.629566        71.5541 
 225   0.0000       2.644814        71.9690 
 226   0.0000       2.670051        72.6558 
 227   0.0000       2.687923        73.1421 
 228   0.0000       2.701944        73.5236 
 229   0.0000       2.714269        73.8590 
 230   0.0000       2.736643        74.4678 
 231   0.0000       2.746875        74.7463 
 232   0.0000       2.773618        75.4740 
 233   0.0000       2.805864        76.3514 
 234   0.0000       2.824500        76.8585 
 235   0.0000       2.833337        77.0990 
 236   0.0000       2.846712        77.4630 
 237   0.0000       2.872078        78.1532 
 238   0.0000       2.892711        78.7147 
 239   0.0000       2.895786        78.7983 
 240   0.0000       2.909494        79.1714 
 241   0.0000       2.931651        79.7743 
 242   0.0000       2.978602        81.0519 
 243   0.0000       3.038410        82.6793 
 244   0.0000       3.058605        83.2289 
 245   0.0000       3.069493        83.5252 
 246   0.0000       3.109151        84.6043 
 247   0.0000       3.175565        86.4115 
 248   0.0000       3.216338        87.5210 
 249   0.0000       3.251462        88.4768 
 250   0.0000       3.309961        90.0686 
 251   0.0000       3.327247        90.5390 
 252   0.0000       3.362688        91.5034 
 253   0.0000       3.380685        91.9931 
 254   0.0000       3.389495        92.2328 
 255   0.0000       3.455794        94.0369 
 256   0.0000       3.521559        95.8265 
 257   0.0000       3.535346        96.2017 
 258   0.0000       3.560334        96.8816 
 259   0.0000       3.858449       104.9937 

                    ********************************
                    * MULLIKEN POPULATION ANALYSIS *
                    ********************************

-----------------------
MULLIKEN ATOMIC CHARGES
-----------------------
   0 O :   -0.503154
   1 O :   -0.508277
   2 O :   -0.441025
   3 O :   -0.441477
   4 N :   -0.622246
   5 N :    0.371646
   6 C :   -0.254243
   7 C :   -0.009055
   8 C :    0.113217
   9 C :   -0.124777
  10 C :   -0.124471
  11 C :   -0.104571
  12 C :   -0.102982
  13 C :    0.585880
  14 C :    0.259635
  15 H :    0.135476
  16 H :    0.138483
  17 H :    0.149835
  18 H :    0.138736
  19 H :    0.137775
  20 H :    0.148236
  21 H :    0.148515
  22 H :    0.271008
  23 H :    0.263477
  24 H :    0.374359
Sum of atomic charges:   -0.0000000

--------------------------------
MULLIKEN REDUCED ORBITAL CHARGES
--------------------------------
  0 O s       :     3.827666  s :     3.827666
      pz      :     1.679181  p :     4.654481
      px      :     1.662118
      py      :     1.313181
      dz2     :     0.004608  d :     0.021007
      dxz     :     0.004718
      dyz     :     0.001998
      dx2y2   :     0.004864
      dxy     :     0.004819

  1 O s       :     3.849153  s :     3.849153
      pz      :     1.478472  p :     4.633390
      px      :     1.422549
      py      :     1.732369
      dz2     :     0.005242  d :     0.025734
      dxz     :     0.006225
      dyz     :     0.003033
      dx2y2   :     0.005967
      dxy     :     0.005268

  2 O s       :     3.920928  s :     3.920928
      pz      :     1.494393  p :     4.485022
      px      :     1.758024
      py      :     1.232604
      dz2     :     0.004651  d :     0.035076
      dxz     :     0.002281
      dyz     :     0.009245
      dx2y2   :     0.010227
      dxy     :     0.008672

  3 O s       :     3.921025  s :     3.921025
      pz      :     1.406818  p :     4.485379
      px      :     1.596364
      py      :     1.482197
      dz2     :     0.005739  d :     0.035073
      dxz     :     0.006066
      dyz     :     0.007345
      dx2y2   :     0.005869
      dxy     :     0.010054

  4 N s       :     3.591477  s :     3.591477
      pz      :     1.477503  p :     4.002160
      px      :     1.340567
      py      :     1.184090
      dz2     :     0.010085  d :     0.028610
      dxz     :     0.004189
      dyz     :     0.000718
      dx2y2   :     0.008219
      dxy     :     0.005398

  5 N s       :     3.394145  s :     3.394145
      pz      :     1.097309  p :     3.090427
      px      :     1.074978
      py      :     0.918140
      dz2     :     0.016746  d :     0.143782
      dxz     :     0.016119
      dyz     :     0.028325
      dx2y2   :     0.044635
      dxy     :     0.037956

  6 C s       :     3.241849  s :     3.241849
      pz      :     0.979747  p :     2.975432
      px      :     0.927306
      py      :     1.068379
      dz2     :     0.008195  d :     0.036962
      dxz     :     0.008033
      dyz     :     0.005390
      dx2y2   :     0.010711
      dxy     :     0.004633

  7 C s       :     3.194991  s :     3.194991
      pz      :     1.008618  p :     2.757265
      px      :     0.872899
      py      :     0.875748
      dz2     :     0.011863  d :     0.056799
      dxz     :     0.013918
      dyz     :     0.004678
      dx2y2   :     0.015085
      dxy     :     0.011255

  8 C s       :     3.150289  s :     3.150289
      pz      :     0.890446  p :     2.693554
      px      :     0.906118
      py      :     0.896990
      dz2     :     0.004966  d :     0.042940
      dxz     :     0.006914
      dyz     :     0.006397
      dx2y2   :     0.012288
      dxy     :     0.012374

  9 C s       :     3.196879  s :     3.196879
      pz      :     0.989956  p :     2.893201
      px      :     0.950923
      py      :     0.952322
      dz2     :     0.003003  d :     0.034698
      dxz     :     0.005532
      dyz     :     0.005108
      dx2y2   :     0.009985
      dxy     :     0.011070

 10 C s       :     3.197092  s :     3.197092
      pz      :     0.970275  p :     2.892729
      px      :     0.932931
      py      :     0.989523
      dz2     :     0.003697  d :     0.034650
      dxz     :     0.005846
      dyz     :     0.004202
      dx2y2   :     0.010474
      dxy     :     0.010432

 11 C s       :     3.198121  s :     3.198121
      pz      :     0.932615  p :     2.871966
      px      :     0.965279
      py      :     0.974072
      dz2     :     0.004193  d :     0.034484
      dxz     :     0.006600
      dyz     :     0.004016
      dx2y2   :     0.008637
      dxy     :     0.011037

 12 C s       :     3.197808  s :     3.197808
      pz      :     0.941969  p :     2.870692
      px      :     0.977916
      py      :     0.950807
      dz2     :     0.002977  d :     0.034482
      dxz     :     0.006314
      dyz     :     0.005310
      dx2y2   :     0.009318
      dxy     :     0.010563

 13 C s       :     2.985850  s :     2.985850
      pz      :     0.723321  p :     2.308648
      px      :     0.720929
      py      :     0.864398
      dz2     :     0.020349  d :     0.119622
      dxz     :     0.021431
      dyz     :     0.019106
      dx2y2   :     0.026613
      dxy     :     0.032122

 14 C s       :     3.086467  s :     3.086467
      pz      :     1.032416  p :     2.603954
      px      :     0.688222
      py      :     0.883317
      dz2     :     0.006250  d :     0.049943
      dxz     :     0.006731
      dyz     :     0.007024
      dx2y2   :     0.017494
      dxy     :     0.012446

 15 H s       :     0.852960  s :     0.852960
      pz      :     0.005862  p :     0.011564
      px      :     0.002513
      py      :     0.003188

 16 H s       :     0.849906  s :     0.849906
      pz      :     0.002400  p :     0.011610
      px      :     0.002091
      py      :     0.007118

 17 H s       :     0.839166  s :     0.839166
      pz      :     0.006379  p :     0.010999
      px      :     0.002615
      py      :     0.002005

 18 H s       :     0.848794  s :     0.848794
      pz      :     0.003635  p :     0.012470
      px      :     0.004041
      py      :     0.004793

 19 H s       :     0.849748  s :     0.849748
      pz      :     0.002842  p :     0.012477
      px      :     0.002605
      py      :     0.007030

 20 H s       :     0.839208  s :     0.839208
      pz      :     0.002719  p :     0.012556
      px      :     0.002682
      py      :     0.007154

 21 H s       :     0.838924  s :     0.838924
      pz      :     0.003512  p :     0.012561
      px      :     0.004130
      py      :     0.004920

 22 H s       :     0.705532  s :     0.705532
      pz      :     0.006074  p :     0.023460
      px      :     0.005103
      py      :     0.012283

 23 H s       :     0.712984  s :     0.712984
      pz      :     0.011620  p :     0.023539
      px      :     0.007146
      py      :     0.004773

 24 H s       :     0.588618  s :     0.588618
      pz      :     0.007168  p :     0.037023
      px      :     0.007773
      py      :     0.022082


------------------------
MULLIKEN OVERLAP CHARGES
------------------------
B(  0-O ,  1-O ) :  -0.1586 B(  0-O ,  7-C ) :  -0.1565 B(  0-O , 13-C ) :   0.6060 
B(  0-O , 24-H ) :   0.5607 B(  1-O ,  7-C ) :  -0.1559 B(  1-O , 13-C ) :   1.2220 
B(  2-O ,  3-O ) :  -0.2033 B(  2-O ,  5-N ) :   0.7162 B(  2-O , 14-C ) :  -0.1948 
B(  3-O ,  5-N ) :   0.7157 B(  3-O , 14-C ) :  -0.1948 B(  4-N ,  6-C ) :  -0.1356 
B(  4-N ,  7-C ) :   0.6465 B(  4-N , 13-C ) :  -0.0915 B(  4-N , 17-H ) :  -0.0738 
B(  4-N , 22-H ) :   0.6972 B(  4-N , 23-H ) :   0.6879 B(  5-N , 11-C ) :  -0.0917 
B(  5-N , 12-C ) :  -0.0919 B(  5-N , 14-C ) :   0.4452 B(  6-C ,  7-C ) :   0.7085 
B(  6-C ,  8-C ) :   0.6242 B(  6-C ,  9-C ) :  -0.1053 B(  6-C , 10-C ) :  -0.1093 
B(  6-C , 13-C ) :  -0.0632 B(  6-C , 15-H ) :   0.7247 B(  6-C , 16-H ) :   0.7583 
B(  6-C , 17-H ) :  -0.0903 B(  7-C ,  8-C ) :  -0.0710 B(  7-C , 13-C ) :   0.6258 
B(  7-C , 15-H ) :  -0.0640 B(  7-C , 16-H ) :  -0.0595 B(  7-C , 17-H ) :   0.7586 
B(  7-C , 22-H ) :  -0.0713 B(  7-C , 23-H ) :  -0.0794 B(  8-C ,  9-C ) :   1.0696 
B(  8-C , 10-C ) :   1.0831 B(  8-C , 11-C ) :  -0.0552 B(  8-C , 12-C ) :  -0.0552 
B(  8-C , 14-C ) :  -0.0708 B(  8-C , 16-H ) :  -0.0602 B(  8-C , 18-H ) :  -0.0792 
B(  8-C , 19-H ) :  -0.0778 B(  9-C , 10-C ) :  -0.0706 B(  9-C , 11-C ) :   0.9643 
B(  9-C , 12-C ) :  -0.0889 B(  9-C , 14-C ) :  -0.0528 B(  9-C , 18-H ) :   0.7541 
[...]
 8 C  dyz             0.0       1.3
 8 C  dx2y2           0.1       3.6
 8 C  dxy             0.2       1.2
 9 C  s               0.0       0.3
 9 C  pz              0.0       0.3
 9 C  px              0.0       0.4
 9 C  py              0.0       0.3
 9 C  dz2             0.0       0.4
 9 C  dxz             0.0       2.9
 9 C  dyz             0.0       1.4
 9 C  dx2y2           0.1       0.0
 9 C  dxy             0.1       6.8
10 C  s               0.0       0.3
10 C  pz              0.0       0.1
10 C  px              0.0       0.1
10 C  py              0.0       0.6
10 C  dz2             0.0       0.2
10 C  dxz             0.0       2.2
10 C  dyz             0.0       1.6
10 C  dx2y2           0.1       4.9
10 C  dxy             0.0       2.5
11 C  s               0.0       0.3
11 C  pz              0.0       0.1
11 C  px              0.0       0.2
11 C  py              0.0       0.8
11 C  dz2             0.0       0.2
11 C  dxz             0.0       2.2
11 C  dyz             0.1       1.7
11 C  dx2y2           0.1       5.0
11 C  dxy             0.0       2.7
12 C  s               0.0       0.3
12 C  pz              0.0       0.3
12 C  px              0.0       0.4
12 C  py              0.0       0.3
12 C  dz2             0.0       0.4
12 C  dxz             0.0       3.0
12 C  dyz             0.0       1.5
12 C  dxy             0.0       6.8
13 C  py              0.2       0.0
13 C  dz2             0.9       0.0
13 C  dxz             0.3       0.0
13 C  dx2y2           1.0       0.0
14 C  dz2             0.0       0.5
14 C  dxz             0.0       0.1
14 C  dyz             0.0       1.5
14 C  dx2y2           0.0       3.5
14 C  dxy             0.0       1.2
15 H  s               1.0       0.1
15 H  pz              3.5       0.2
15 H  py              0.4       0.0
16 H  s               0.5       0.0
16 H  py              1.6       0.1
17 H  s               4.9       0.0
17 H  pz             13.6       0.0
17 H  px              2.2       0.0
17 H  py              3.6       0.0
18 H  s               0.0       2.1
18 H  pz              0.0       1.8
18 H  px              0.1       2.0
18 H  py              0.0       1.8
19 H  s               0.0       2.0
19 H  pz              0.0       0.8
19 H  px              0.0       0.6
19 H  py              0.0       4.1
20 H  s               0.0       2.2
20 H  pz              0.0       0.9
20 H  px              0.1       0.8
20 H  py              0.1       4.4
21 H  s               0.0       2.2
21 H  pz              0.0       1.9
21 H  px              0.0       2.2
21 H  py              0.0       1.8
22 H  s               2.7       0.0
22 H  pz              0.2       0.0
22 H  py              5.8       0.0
23 H  s               3.4       0.0
23 H  pz              5.0       0.0
23 H  px              2.1       0.0
23 H  py              0.8       0.0
24 H  s               1.2       0.0
24 H  py              2.4       0.0


                      *****************************
                      * MAYER POPULATION ANALYSIS *
                      *****************************

  NA   - Mulliken gross atomic population
  ZA   - Total nuclear charge
  QA   - Mulliken gross atomic charge
  VA   - Mayer's total valence
  BVA  - Mayer's bonded valence
  FA   - Mayer's free valence

  ATOM       NA         ZA         QA         VA         BVA        FA
  0 O      8.4856     8.0000    -0.4856     2.0429     2.0429    -0.0000
  1 O      8.5104     8.0000    -0.5104     2.0225     2.0225    -0.0000
  2 O      8.4329     8.0000    -0.4329     1.8811     1.8811     0.0000
  3 O      8.4331     8.0000    -0.4331     1.8809     1.8809    -0.0000
  4 N      7.6180     7.0000    -0.6180     2.8539     2.8539    -0.0000
  5 N      6.6070     7.0000     0.3930     3.9183     3.9183     0.0000
  6 C      6.2534     6.0000    -0.2534     3.8578     3.8578    -0.0000
  7 C      6.0068     6.0000    -0.0068     3.8547     3.8547    -0.0000
  8 C      5.8850     6.0000     0.1150     3.9255     3.9255     0.0000
  9 C      6.1424     6.0000    -0.1424     3.9291     3.9291     0.0000
 10 C      6.1389     6.0000    -0.1389     3.9253     3.9253     0.0000
 11 C      6.0916     6.0000    -0.0916     3.8707     3.8707     0.0000
 12 C      6.0915     6.0000    -0.0915     3.8715     3.8715    -0.0000
 13 C      5.4297     6.0000     0.5703     3.9455     3.9455    -0.0000
 14 C      5.7716     6.0000     0.2284     3.7735     3.7735    -0.0000
 15 H      0.8667     1.0000     0.1333     0.9552     0.9552    -0.0000
 16 H      0.8579     1.0000     0.1421     0.9506     0.9506     0.0000
 17 H      0.8576     1.0000     0.1424     0.9480     0.9480     0.0000
 18 H      0.8649     1.0000     0.1351     0.9563     0.9563     0.0000
 19 H      0.8652     1.0000     0.1348     0.9533     0.9533    -0.0000
 20 H      0.8496     1.0000     0.1504     0.9612     0.9612     0.0000
 21 H      0.8500     1.0000     0.1500     0.9613     0.9613    -0.0000
 22 H      0.7262     1.0000     0.2738     0.9071     0.9071    -0.0000
 23 H      0.7349     1.0000     0.2651     0.9206     0.9206    -0.0000
 24 H      0.6293     1.0000     0.3707     0.8763     0.8763     0.0000

  Mayer bond orders larger than 0.100000
B(  0-O , 13-C ) :   1.1243 B(  0-O , 24-H ) :   0.8242 B(  1-O , 13-C ) :   1.8600 
B(  2-O ,  3-O ) :   0.2412 B(  2-O ,  5-N ) :   1.5144 B(  3-O ,  5-N ) :   1.5142 
B(  4-N ,  7-C ) :   1.0239 B(  4-N , 22-H ) :   0.8967 B(  4-N , 23-H ) :   0.8904 
B(  5-N , 14-C ) :   0.8453 B(  6-C ,  7-C ) :   0.9500 B(  6-C ,  8-C ) :   0.9897 
B(  6-C , 15-H ) :   0.9347 B(  6-C , 16-H ) :   0.9329 B(  7-C , 13-C ) :   0.9289 
B(  7-C , 17-H ) :   0.9277 B(  8-C ,  9-C ) :   1.3999 B(  8-C , 10-C ) :   1.3987 
B(  9-C , 11-C ) :   1.4310 B(  9-C , 18-H ) :   0.9303 B( 10-C , 12-C ) :   1.4362 
B( 10-C , 19-H ) :   0.9326 B( 11-C , 14-C ) :   1.3665 B( 11-C , 20-H ) :   0.9201 
B( 12-C , 14-C ) :   1.3626 B( 12-C , 21-H ) :   0.9202 

-------
TIMINGS
-------

Total SCF time: 0 days 0 hours 0 min 56 sec 

Total time                  ....      56.566 sec
Sum of individual times     ....      53.137 sec  ( 93.9%)

SCF preparation             ....       0.573 sec  (  1.0%)
Fock matrix formation       ....      51.882 sec  ( 91.7%)
  Startup                   ....       0.006 sec  (  0.0% of F)
  Split-RI-J                ....       3.794 sec  (  7.3% of F)
  Chain of spheres X        ....      41.702 sec  ( 80.4% of F)
  XC integration            ....       5.646 sec  ( 10.9% of F)
    Basis function eval.    ....       2.093 sec  ( 37.1% of XC)
    Density eval.           ....       1.302 sec  ( 23.1% of XC)
    XC-Functional eval.     ....       0.305 sec  (  5.4% of XC)
    XC-Potential eval.      ....       1.545 sec  ( 27.4% of XC)
  CPCM terms                ....       4.032 sec  (  7.8% of F)
Diagonalization             ....       0.000 sec  (  0.0%)
Density matrix formation    ....       0.025 sec  (  0.0%)
Total Energy calculation    ....       0.015 sec  (  0.0%)
Population analysis         ....       0.398 sec  (  0.7%)
Orbital Transformation      ....       0.035 sec  (  0.1%)
Orbital Orthonormalization  ....       0.000 sec  (  0.0%)
DIIS solution               ....       0.158 sec  (  0.3%)
  MO trafo                  ....       0.018 sec  ( 11.1 % of DIIS)
  Orb grad                  ....       0.000 sec  (  0.0 % of DIIS)
  Energy W gradient         ....       0.000 sec  (  0.0 % of DIIS)
  DIIS error                ....       0.033 sec  ( 20.9 % of DIIS)
  DIIS work                 ....       0.086 sec  ( 54.0 % of DIIS)
  Form Q                    ....       0.000 sec  (  0.0 % of DIIS)
  Form QpQm                 ....       0.000 sec  (  0.0 % of DIIS)
  Exp/Cayley                ....       0.000 sec  (  0.0 % of DIIS)
  Orb update                ....       0.000 sec  (  0.0 % of DIIS)
  Wake-sleep                ....       0.005 sec  (  3.0 % of DIIS)
SOSCF solution              ....       0.051 sec  (  0.1%)
  MO trafo                  ....       0.026 sec  ( 51.3 % of SOSCF)
  Orb grad                  ....       0.001 sec  (  2.1 % of SOSCF)
  Rot update                ....       0.002 sec  (  3.7 % of SOSCF)
  Step                      ....       0.019 sec  ( 37.2 % of SOSCF)
Finished LeanSCF after  56.7 sec

Maximum memory used throughout the entire LEANSCF-calculation: 41.8 MB


-------------------------------------------------------------------------------
                          DFT DISPERSION CORRECTION                            
                                                                               
                              DFTD3 V3.1  Rev 1                                
                          USING Becke-Johnson damping                          
-------------------------------------------------------------------------------
The B3LYP functional is recognized
Active option DFTDOPT                   ...         4   

molecular C6(AA) [au] = 6848.218814 


            DFT-D V3
 parameters
 s6 scaling factor         :     1.0000 
 a1 scaling factor         :     0.3981 
 s8 scaling factor         :     1.9889 
 a2 scaling factor         :     4.4211 
 ad hoc parameters k1-k3   :    16.0000     1.3333    -4.0000 

 Edisp/kcal,au: -31.059507972160  -0.049496471277 
 E6   /kcal   : -14.728558025 
 E8   /kcal   : -16.330949947 
 % E8         :  52.579551362 

-------------------------   ----------------
Dispersion correction           -0.049496471
-------------------------   ----------------


-------------------------   --------------------
FINAL SINGLE POINT ENERGY      -758.958468339927
-------------------------   --------------------

                                *** OPTIMIZATION RUN DONE ***



           ************************************************************
           *        Program running with 2 parallel MPI-processes     *
           *              working on a common directory               *
           ************************************************************

------------------------------------------------------------------------------
                              ORCA PROPERTY CALCULATIONS
------------------------------------------------------------------------------

GBWName                                 ... /kaggle/working/Phe-NO2-1/Phe-NO2_InterFrag.gbw
Number of atoms                         ...     25
Number of basis functions               ...    260
Max core memory                         ...   3000 MB

Electric properties:
Dipole moment                           ... YES
Quadrupole moment                       ...  NO
Static polarizability (Dipole/Dipole)   ...  NO
Static polarizability (Dipole/Quad.)    ...  NO
Static polarizability (Quad./Quad.)     ...  NO
Static polarizability (Velocity)        ...  NO
Static hyperpolarizability              ...  NO

Atomic electric properties:
Dipole moment                           ...  NO
Quadrupole moment                       ...  NO
Static polarizability                   ...  NO

Choice of electric origin               ... Center of mass
Position of electric origin             ...     0.004570    -0.120948    -0.087001

General magnetic properties:
Magnetizability                         ...  NO

EPR properties:
g-Tensor (aka g-matrix)                 ...  NO
Zero-Field splitting spin-orbit         ...  NO
Zero-field splitting spin-spin          ...  NO
Hyperfine couplings                     ...  NO (   0 nuclei)
Quadrupole couplings                    ...  NO (   0 nuclei)
Contact density                         ...  NO (   0 nuclei)

NMR properties:
Chemical shifts                         ...  NO (   0 nuclei)
Spin-rotation constants                 ...  NO (   0 nuclei)
Spin-spin couplings                     ...  NO (   0 nuclei,    0 pairs)

Choice of magnetic origin               ... GIAO
Position of magnetic origin             ...     0.000000     0.000000     0.000000

Properties with geometric perturbations:
SCF Hessian                             ...  NO
IR spectrum                             ...  NO
VCD spectrum                            ...  NO
X-ray spectroscopy properties:
SCF XES/XAS/RIXS spectra                ...  NO

SCF SOC stabilization energy            ...  NO
Diagonal Born-Oppenheimer correction    ...  NO

-------------
DIPOLE MOMENT
-------------

Method             : SCF
Type of density    : Electron Density
Multiplicity       :   1
Irrep              :   0
Energy             :  -758.9089718686498145 Eh
Basis              : AO
                                X                 Y                 Z
Electronic contribution:     10.868673971      -4.894340289      -1.808344084
Nuclear contribution   :    -12.622073086       6.319597908       2.381511408
                        -----------------------------------------
Total Dipole Moment    :     -1.753399115       1.425257619       0.573167324
                        -----------------------------------------
Magnitude (a.u.)       :      2.331156047
Magnitude (Debye)      :      5.925327779



--------------------
Rotational spectrum 
--------------------
 
Rotational constants in cm-1:             0.048746             0.009773             0.009117 
Rotational constants in MHz :          1461.354811           292.974543           273.326558 

Dipole components along the rotational axes: 
x,y,z [a.u.] :     1.854755     1.300974     0.549215 
x,y,z [Debye]:     4.714414     3.306814     1.395993 

 

Dipole moment calculation done in   0.0 sec 

Maximum memory used throughout the entire PROP-calculation: 15.5 MB

--------------------------------
SUGGESTED CITATIONS FOR THIS RUN
--------------------------------

Below you find a list of papers that are relevant to this ORCA run
We neither can nor want to force you to cite these papers, but we appreciate if you do
You receive ORCA, which is the product of decades of hard work by many enthusiastic individuals, for free
The only thing we kindly ask in return is that you cite our papers,
We deeply appreciate it, if you show your appreciation for ORCA by not just citing the generic ORCA reference.

Please note that relegating all ORCA citations to the supporting information does *not* help us.
SI sections are not indexed - citations you put there will not count into any citation statistics
But we need these citations in order to attract the funding resources that allow us to do what we are doing

Therefore, if you are a happy ORCA user, please consider citing a few of the papers listed below in the main body of your paper

In addition to the list printed below, the program has created the file /kaggle/working/Phe-NO2-1/Phe-NO2_InterFrag.bibtex that contains the list in bibtex format
You can import this file easily into all common literature databanks and citation aid programs

It goes without saying that in many instances, there are alternative algorithms to achieve similar
results as the ones you have gotten from ORCA. It is, of course, also the case that in some instances
ORCA just re-implements algorithms worked out by others. We are fully aware of that and we are also
fully appreciative of our colleagues work. Hence this citation list should not be read as indicating
that the listed papers, which are focused on our own work, are the only ones worth citing. It simply
meant to make it easier for users to cite ORCA specific papers. It is not a substitute for doing your
own literature research and citing the relevant literature in a scientifically appropriate manner.

List of essential papers. We consider these as the minimum necessary citations

  1. Neese, F.
     Software update: the ORCA program system, version 6.0
     WIRES Comput. Molec. Sci. 2025 15(1), e70019
     doi.org/10.1002/wcms.70019

List of papers to cite with high priority. The work reported in these papers was absolutely
necessary for this run to complete.
Our perspective: the developers of density functionals and basis sets usually get cited in chemistry papers
Good! But without the algorithms to do something with them, the functionals or basis sets would not do anything.
Hence, in our opinion, the algorithm design and method developments papers are equally worthy of getting cited

  1. Neese, F.
     An improvement of the resolution of the identity approximation for the formation of the Coulomb matrix
     J. Comp. Chem. 2003 24(14), 1740-1747
     doi.org/10.1002/jcc.10318
  2. Neese, F.; Wennmohs, F.; Hansen, A.; Becker, U.
     Efficient, approximate and parallel Hartree-Fock and hybrid DFT calculations. A 'chain-of-spheres' algorithm for the Hartree-Fock exchange
     Chem. Phys. 2009 356(1-3), 98-109
     doi.org/10.1016/j.chemphys.2008.10.036
  3. Grimme, S.; Antony, J.; Ehrlich, S.; Krieg, H.
     A consistent and accurate ab initio parametrization of density functional dispersion correction (DFT-D) for the 94 elements H-Pu
     J. Chem. Phys. 2010 132 , 154104
     doi.org/10.1063/1.3382344
  4. Grimme, S.; Ehrlich, S.; Goerigk, L.
     Effect of the damping function in dispersion corrected density functional theory
     J. Comput. Chem. 2011 32(7), 1456-1465
     doi.org/10.1002/jcc.21759
  5. Garcia-Rates, M.; Neese, F.
     Effect of the Solute Cavity on the Solvation Energy and its Derivatives within the Framework of the Gaussian Charge Scheme
     J. Comput. Chem. 2020 41 , 922-939
     doi.org/10.1002/jcc.26139
  6. Helmich-Paris, B.; de Souza, B.; Neese, F.; Izsák, R.
     An improved chain of spheres for exchange algorithm
     J. Chem. Phys. 2021 155(10), 104109
     doi.org/10.1063/5.0058766
  7. Neese, F.
     The SHARK Integral Generation and Digestion System
     J. Comp. Chem. 2022 44(3), 381
     doi.org/10.1002/jcc.26942

List of suggested additional citations. These are papers that are important in the 'surrounding' of 
of this run, or papers that preceded the highly important papers. If you like your results we are grateful for a citation.

  1. Izsak, R.; Neese, F.
     An overlap fitted chain of spheres exchange method
     J. Chem. Phys. 2011 135 , 144105
     doi.org/10.1063/1.3646921
  2. Izsak, R.; Hansen, A.; Neese, F.
     The resolution of identity and chain of spheres approximations for the LPNO-CCSD singles Fock term
     Molec. Phys. 2012 110 , 2413-2417
     doi.org/10.1080/00268976.2012.687466
  3. Neese, F.
     The ORCA program system
     WIRES Comput. Molec. Sci. 2012 2(1), 73-78
     doi.org/10.1002/wcms.81
  4. Izsak, R.; Neese, F.; Klopper, W.
     Robust fitting techniques in the chain of spheres approximation to the Fock exchange: The role of the complementary space
     J. Chem. Phys. 2013 139 , 
     doi.org/10.1063/1.4819264
  5. Neese, F.
     Software update: the ORCA program system, version 4.0
     WIRES Comput. Molec. Sci. 2018 8(1), 1-6
     doi.org/10.1002/wcms.1327
  6. Neese, F.; Wennmohs, F.; Becker, U.; Riplinger, C.
     The ORCA quantum chemistry program package
     J. Chem. Phys. 2020 152(22), 224108
     doi.org/10.1063/5.0004608
  7. Neese, F.
     Software update: The ORCA program system—Version 5.0
     WIRES Comput. Molec. Sci. 2022 12(1), e1606
     doi.org/10.1002/wcms.1606

List of optional additional citations

  1. Neese, F.
     Approximate second-order SCF convergence for spin unrestricted wavefunctions
     Chem. Phys. Lett. 2000 325(1-3), 93-98
     doi.org/10.1016/s0009-2614(00)00662-x

Timings for individual modules:

Sum of individual times          ...     1186.091 sec (=  19.768 min)
Startup calculation              ...       34.506 sec (=   0.575 min)   2.9 %
SCF iterations                   ...      778.981 sec (=  12.983 min)  65.7 %
Property calculations            ...        0.443 sec (=   0.007 min)   0.0 %
SCF Gradient evaluation          ...      371.907 sec (=   6.198 min)  31.4 %
Geometry relaxation              ...        0.254 sec (=   0.004 min)   0.0 %
                             ****ORCA TERMINATED NORMALLY****
TOTAL RUN TIME: 0 days 0 hours 19 minutes 52 seconds 418 msec
