
                                 *****************
                                 * O   R   C   A *
                                 *****************

                                            #,                                       
                                            ###                                      
                                            ####                                     
                                            #####                                    
                                            ######                                   
                                           ########,                                 
                                     ,,################,,,,,                         
                               ,,#################################,,                 
                          ,,##########################################,,             
                       ,#########################################, ''#####,          
                    ,#############################################,,   '####,        
                  ,##################################################,,,,####,       
                ,###########''''           ''''###############################       
              ,#####''   ,,,,##########,,,,          '''####'''          '####       
            ,##' ,,,,###########################,,,                        '##       
           ' ,,###''''                  '''############,,,                           
         ,,##''                                '''############,,,,        ,,,,,,###''
      ,#''                                            '''#######################'''  
     '                                                          ''''####''''         
             ,#######,   #######,   ,#######,      ##                                
            ,#'     '#,  ##    ##  ,#'     '#,    #''#        ,####,    ,#,          
            ##       ##  ##   ,#'  ##            #'  '#       #'       ,# #          
            ##       ##  #######   ##           ,######,      #####,      #          
            '#,     ,#'  ##    ##  '#,     ,#' ,#      #,     #,   #      #          
             '#######'   ##     ##  '#######'  #'      '#     '####' #    #          



                #########################################################
                #                        -***-                          #
                #          Department of theory and spectroscopy        #
                #                                                       #
                #                      Frank Neese                      #
                #                                                       #
                #     Directorship, Architecture, Infrastructure        #
                #                    SHARK, DRIVERS                     #
                #        Core code/Algorithms in most modules           #
                #                                                       #
                #        Max Planck Institute fuer Kohlenforschung      #
                #                Kaiser Wilhelm Platz 1                 #
                #                 D-45470 Muelheim/Ruhr                 #
                #                      Germany                          #
                #                                                       #
                #                  All rights reserved                  #
                #                        -***-                          #
                #########################################################


                         Program Version 6.1.1  -  RELEASE   -
                                (GIT: $487d211c$)
                          ($2025-11-21 10:33:24 +0100$)
                                                                         
                                  - NO-DMRG VERSION -                    
                                                                         


 With contributions from (in alphabetic order):
[Max-Planck-Institut fuer Kohlenforschung]                               
  Daniel Aravena         : Magnetic Suceptibility                        
  Michael Atanasov       : Ab Initio Ligand Field Theory (pilot matlab implementation)
  Alexander A. Auer      : GIAO ZORA, VPT2 properties, NMR spectrum      
  Ute Becker             : All parallelization in ORCA, NUMFREQ, NUMCALC 
  Giovanni Bistoni       : ED, misc. LED, open-shell LED, HFLD           
  Dmytro Bykov           : pre 5.0 version of the SCF Hessian            
  Marcos Casanova-Páez   : Triplet and SCS-CIS(D). UHF-(DLPNO)-IP/EA/STEOM-CCSD. UHF-CVS-IP/STEOM-CCSD   
  Vijay G. Chilkuri      : MRCI spin determinant printing, contributions to CSF-ICE 
  Pauline Colinet        : FMM embedding                                 
  Dipayan Datta          : RHF DLPNO-CCSD density                        
  Achintya Kumar Dutta   : EOM-CC, STEOM-CC                              
  Nicolas Foglia         : Exact transition moments, OPA infrastructure, MCD improvements    
  Dmitry Ganyushin       : Spin-Orbit,Spin-Spin,Magnetic field MRCI      
  Miquel Garcia-Rates    : C-PCM and meta-GGA Hessian, CCSD/C-PCM, Gaussian charge scheme 
  Tiago L. C. Gouveia    : GS-ROHF, GS-ROCIS                             
  Yang Guo               : DLPNO-NEVPT2, F12-NEVPT2, CIM, IAO-localization        
  Andreas Hansen         : Spin unrestricted coupled pair/coupled cluster methods 
  Ingolf Harden          : AUTO-CI MPn and infrastructure                
  Benjamin Helmich-Paris : MC-RPA, TRAH-(SCF,CASSCF), AVAS, COSX integrals, SCF dyn. polar., MC-PDFT, srDFT 
  Lee Huntington         : MR-EOM, pCC                                   
  Robert Izsak           : Overlap fitted RIJCOSX, COSX-SCS-MP3, EOM     
  Riya Kayal             : Wick's Theorem for AUTO-CI, AUTO-CI UHF-CCSDT 
  Emily Kempfer          : AUTO-CI RHF CISDT and CCSDT, approximate NEVPT4
  Christian Kollmar      : KDIIS, OOCD, Brueckner-CCSD(T), CCSD density, CASPT2, CASPT2-K, improved NEVPT2 
  Axel Koslowski         : Symmetry handling                             
  Simone Kossmann        : meta-GGA functionals, TD-DFT gradient, OOMP2, (MP2 Hessian; deprecated post 5.0) 
  Lucas Lang             : DCDCAS, Hyperfine gauge corrections, ICE-SOC+SSC
  Marvin Lechner         : AUTO-CI (C++ implementation), FIC-MRCC        
  Spencer Leger          : CASSCF response                               
  Dagmar Lenk            : GEPOL surface, SMD, ORCA-2-JSON               
  Dimitrios Liakos       : Extrapolation schemes; Compound Job, Property file
  Dimitrios Manganas     : Further ROCIS development; embedding schemes. LFT, Crystal Embedding 
  Dimitrios Pantazis     : SARC Basis sets                               
  Anastasios Papadopoulos: AUTO-CI, single reference methods and gradients 
  Taras Petrenko         : pre 6.0 DFT Hessian and TD-DFT gradient,  ECA, NRVS 
  Petra Pikulova         : Analytic Raman intensities                    
  Peter Pinski           : DLPNO-MP2, DLPNO-MP2 Gradient                 
  Shashank Vittal Rao    : ES-AILFT, MagRelax                            
  Christoph Reimann      : Effective Core Potentials                     
  Marius Retegan         : Local ZFS, SOC                                
  Christoph Riplinger    : Optimizer, TS searches, QM/MM, DLPNO-CCSD(T), (RO)-DLPNO pert. Triples 
  Michael Roemelt        : Original ROCIS implementation, recursive CI coupling coefficients
  Masaaki Saitow         : Open-shell DLPNO-CCSD energy and density      
  Barbara Sandhoefer     : DKH picture change effects                    
  Yorick L. A. Schmerwitz: GMF and freeze-and-release deltaSCF, NEB S-IDPP initial path                    
  Kantharuban Sivalingam : CASSCF convergence/infrastructure, NEVPT2, NEVPT3, NEVPT4(SD), FIC-MRCI and CEPA variants
  Bernardo de Souza      : ESD, SOC TD-DFT                               
  Georgi L. Stoychev     : AutoAux, RI-MP2 NMR, DLPNO-MP2 response, X2C  
  Van Anh Tran           : RI-MP2 g-tensors                              
  Willem Van den Heuvel  : Paramagnetic NMR                              
  Zikuan Wang            : NOTCH, Electric field optimization            
  Frank Wennmohs         : Technical directorship and infrastructure     
  Hang Xu                : AUTO-CI-Response properties                   
                                                                         
[FACCTs GmbH]                                                            
  Markus Bursch, Nicolas Foglia, Miquel Garcia-Rates, Ingolf Harden, Hagen Neugebauer, Anastasios Papadopoulos, 
  Christoph Riplinger, Bernardo de Souza, Georgi L. Stoychev                                                    
                                                                 
  APM, various basis sets, CI-OPT, improved COSX, DLPNO-Multilevel,           
  DOCKER, DRACO, updates on ESD, Fragmentator, GOAT, IRC, LR-CPCM, L-BFGS, MBIS, meta-GGA TD-DFT gradient, ML-optimized integration grids, 
  MM, NACMEs, nearIR, NEB, NEB-TS, NL-DFT gradient (VV10), 2- and 3-layer-ONIOM, interface openCOSMO-RS, QMMM,   
  Crystal-QMMM, RESP, rigid body optimization, SF, symmetry and pop. for TD-DFT, various functionals, SOLVATOR                                   
                                                                         
[Other institutions]                                                     
  V. Asgeirsson          : NEB                                           
  Christoph Bannwarth    : sTDA-DFT, sTD-DFT, PBEh-3c, B97-3c, D3        
  Giovanni Bistoni       : ETS/NOCV, ADLD/ADEX, COVALED                  
  Martin Brehm           : Molecular dynamics                            
  Ronald Cardenas        : ETS/NOCV                                      
  Martina Colucci        : COVALED                                       
  Sebastian Ehlert       : rSCAN, r2SCAN, r2SCAN-3c, D4, dhf basis sets  
  Marvin Friede          : D4 for Fr, Ra, Ac-Lr                          
  Lars Goerigk           : TD-DFT with DH, B97 family of functionals     
  Stefan Grimme          : VdW corrections, initial TS optimization, DFT functionals, gCP, sTDA/sTD-DF 
  Waldemar Hujo          : DFT-NL                                        
  H. Jonsson             : NEB                                           
  Holger Kruse           : gCP                                           
  Marcel Mueller         : wB97X-3c, vDZP basis set                      
  Hagen Neugebauer       : wr2SCAN, Native XTB                           
  Gianluca Regni         : ADLD/ADEX                                     
  Tobias Risthaus        : pre 6.0 range-separated hybrid DFT and stability analysis
  Lukas Wittmann         : regularized MP2, r2SCAN double-hybrids, wr2SCAN        
                                                                         
We gratefully acknowledge several colleagues who have allowed us to      
interface, adapt or use parts of their codes:                            
  Ed Valeev, F. Pavosevic, A. Kumar             : LibInt (2-el integral package), F12 methods 
  Garnet Chan, S. Sharma, J. Yang, R. Olivares  : DMRG                   
  Ulf Ekstrom                                   : XCFun DFT Library      
  Mihaly Kallay                                 : mrcc  (arbitrary order and MRCC methods)
  Frank Weinhold                                : gennbo (NPA and NBO analysis)           
  Simon Mueller                                 : openCOSMO-RS                            
  Christopher J. Cramer and Donald G. Truhlar   : smd solvation model                     
  S Lehtola, MJT Oliveira, MAL Marques          : LibXC Library                           
  Liviu Ungur et al                             : ANISO software                          


 Your calculation uses the libint2 library for the computation of 2-el integrals
 For citations please refer to: http://libint.valeyev.net

 Your ORCA version has been built with support for libXC version: 7.0.0
 For citations please refer to: https://libxc.gitlab.io

 This ORCA versions uses:
   CBLAS   interface :  Fast vector & matrix operations
   LAPACKE interface :  Fast linear algebra routines
   SCALAPACK package :  Parallel linear algebra routines
   Shared memory     :  Shared parallel matrices
   BLAS/LAPACK       :  OpenBLAS 0.3.29  USE64BITINT DYNAMIC_ARCH NO_AFFINITY SkylakeX SINGLE_THREADED
        Core in use  :  SkylakeX
   Copyright (c) 2011-2014, The OpenBLAS Project


  ***********************************
  * Starting time: Tue Mar 24 18:37:16 2026
  * Host name:     a5fad9bf0f4b
  * Process ID:    662
  * Working dir.:  /kaggle/working
  ***********************************

NOTE: MaxCore=3000 MB was set to SCF,MP2,MDCI,CIPSI,MRCI,RASCI and CIS
      => If you want to overwrite this, your respective input block should be placed after the MaxCore statement
Your calculation utilizes the atom-pairwise dispersion correction
with the Becke-Johnson damping scheme (D3BJ)


Warning: RI is on but no J-basis has been assigned. Assigning Def2/J (nothing to worry about!)
================================================================================

----- Orbital basis set information -----
Your calculation utilizes the basis: 6-31G(d,p)
   H-He, Li-Ne : W. J. Hehre, R. Ditchfield and J.A. Pople, J. Chem. Phys. 56, 2257 (1972).
                 Note: He and Ne are unpublished basis sets taken from the Gaussian program.
                 Note: Li and B from J. D. Dill and J. A. Pople, J. Chem. Phys. 62, 2921 (1975).
   Na - Ar     : M. M. Francl, W. J. Pietro, W. J. Hehre, J. S. Binkley, M. S. Gordon, 
                 D. J. DeFrees and J. A. Pople, J. Chem. Phys. 77, 3654 (1982).
   K - Zn      : V. A. Rassolov, J. A. Pople, M. A. Ratner, and T. L. Windus, J. Chem. Phys. 109, 1223 (1998).

----- AuxJ basis set information -----
Your calculation utilizes the auxiliary basis: def2/J
   H-Rn: F. Weigend, Phys. Chem. Chem. Phys. 8, 1057 (2006).
   Fr-Lr: K. Eichkorn, F. Weigend, O. Treutler, R. Ahlrichs; Theor. Chem. Acc. 97, 119 (1997).

================================================================================
                                        WARNINGS
                       Please study these warnings very carefully!
================================================================================


================================================================================
                                       INPUT FILE
================================================================================
NAME = /kaggle/working/Phe-NO2-2/Phe-NO2_InterFrag.inp
|  1> 
|  2> !RKS B3LYP 6-31G(d,p) TightSCF D3BJ # def2-TZVPP
|  3> 
|  4> %pal nprocs 2 end
|  5> %maxcore 3000
|  6> 
|  7> %elprop
|  8>   Polar 1      # polarizability via CP-SCF
|  9> end
| 10> 
| 11> %output
| 12>   PrintLevel Normal
| 13>   Print[ P_OrbEn ] 2
| 14> end
| 15> 
| 16> *xyz 0 1
| 17>   O     -1.898726   -1.128944   -1.478822
| 18>   O     -3.366899   -1.525481    0.187661
| 19>   O      3.933676   -1.601233    0.279980
| 20>   O      4.254784    0.172156   -0.934212
| 21>   N     -4.179496    1.159238   -0.114854
| 22>   N      3.542493   -0.536097   -0.212400
| 23>   C     -1.836187    1.157566    0.834209
| 24>   C     -2.790181    0.764696   -0.335039
| 25>   C     -0.410138    0.737581    0.603066
| 26>   C      0.073967   -0.468465    1.134904
| 27>   C      0.436262    1.513945   -0.204776
| 28>   C      1.370478   -0.895133    0.875226
| 29>   C      1.735411    1.105785   -0.477715
| 30>   C     -2.741722   -0.741136   -0.507754
| 31>   C      2.184586   -0.098518    0.068324
| 32>   H     -2.224538    0.702402    1.750812
| 33>   H     -1.899054    2.245368    0.936887
| 34>   H     -2.421896    1.229818   -1.252314
| 35>   H     -0.576525   -1.078192    1.754108
| 36>   H      0.070409    2.447433   -0.620916
| 37>   H      1.749258   -1.822849    1.284537
| 38>   H      2.393114    1.701307   -1.097621
| 39>   H     -4.188549    2.152054    0.113225
| 40>   H     -4.507110    0.678708    0.722704
| 41>   H     -1.866917   -2.104110   -1.484220
| 42> 
| 43> *
| 44> 
| 45>                          ****END OF INPUT****
================================================================================

                       ****************************
                       * Single Point Calculation *
                       ****************************

---------------------------------
CARTESIAN COORDINATES (ANGSTROEM)
---------------------------------
  O     -1.898726   -1.128944   -1.478822
  O     -3.366899   -1.525481    0.187661
  O      3.933676   -1.601233    0.279980
  O      4.254784    0.172156   -0.934212
  N     -4.179496    1.159238   -0.114854
  N      3.542493   -0.536097   -0.212400
  C     -1.836187    1.157566    0.834209
  C     -2.790181    0.764696   -0.335039
  C     -0.410138    0.737581    0.603066
  C      0.073967   -0.468465    1.134904
  C      0.436262    1.513945   -0.204776
  C      1.370478   -0.895133    0.875226
  C      1.735411    1.105785   -0.477715
  C     -2.741722   -0.741136   -0.507754
  C      2.184586   -0.098518    0.068324
  H     -2.224538    0.702402    1.750812
  H     -1.899054    2.245368    0.936887
  H     -2.421896    1.229818   -1.252314
  H     -0.576525   -1.078192    1.754108
  H      0.070409    2.447433   -0.620916
  H      1.749258   -1.822849    1.284537
  H      2.393114    1.701307   -1.097621
  H     -4.188549    2.152054    0.113225
  H     -4.507110    0.678708    0.722704
  H     -1.866917   -2.104110   -1.484220

----------------------------
CARTESIAN COORDINATES (A.U.)
----------------------------
  NO LB      ZA    FRAG     MASS         X           Y           Z
   0 O     8.0000    0    15.999   -3.588072   -2.133395   -2.794569
   1 O     8.0000    0    15.999   -6.362517   -2.882741    0.354628
   2 O     8.0000    0    15.999    7.433570   -3.025892    0.529086
   3 O     8.0000    0    15.999    8.040377    0.325328   -1.765405
   4 N     7.0000    0    14.007   -7.898103    2.190642   -0.217043
   5 N     7.0000    0    14.007    6.694342   -1.013077   -0.401378
   6 C     6.0000    0    12.011   -3.469891    2.187483    1.576427
   7 C     6.0000    0    12.011   -5.272678    1.445066   -0.633132
   8 C     6.0000    0    12.011   -0.775048    1.393826    1.139630
   9 C     6.0000    0    12.011    0.139777   -0.885271    2.144658
  10 C     6.0000    0    12.011    0.824416    2.860941   -0.386971
  11 C     6.0000    0    12.011    2.589828   -1.691556    1.653937
  12 C     6.0000    0    12.011    3.279452    2.089631   -0.902751
  13 C     6.0000    0    12.011   -5.181104   -1.400544   -0.959516
  14 C     6.0000    0    12.011    4.128269   -0.186172    0.129114
  15 H     1.0000    0     1.008   -4.203768    1.327347    3.308555
  16 H     1.0000    0     1.008   -3.588692    4.243131    1.770460
  17 H     1.0000    0     1.008   -4.576720    2.324019   -2.366530
  18 H     1.0000    0     1.008   -1.089474   -2.037488    3.314784
  19 H     1.0000    0     1.008    0.133054    4.624978   -1.173361
  20 H     1.0000    0     1.008    3.305619   -3.444685    2.427423
  21 H     1.0000    0     1.008    4.522330    3.215004   -2.074203
  22 H     1.0000    0     1.008   -7.915211    4.066793    0.213964
  23 H     1.0000    0     1.008   -8.517204    1.282572    1.365713
  24 H     1.0000    0     1.008   -3.527962   -3.976192   -2.804769

--------------------------------
INTERNAL COORDINATES (ANGSTROEM)
--------------------------------
 O      0   0   0     0.000000000000     0.00000000     0.00000000
 O      1   0   0     2.256089346543     0.00000000     0.00000000
 O      1   2   0     6.110102655793   113.26430518     0.00000000
 O      3   1   2     2.173081016863    85.24680453   221.56123956
 N      2   1   3     2.821266616007    86.61617075   116.04467719
 N      3   1   2     1.236922350993    61.11668298   237.65555661
 C      5   2   1     2.528204984378    72.07074336   291.23061279
 C      5   2   1     1.460938394736    59.02030858   326.42888597
 C      7   5   2     1.504470085138   145.19145105    60.25920758
 C      9   7   5     1.404192388309   120.55478663   264.76014558
 C      9   7   5     1.404187564914   120.35749257    81.52359384
 C     10   9   7     1.389395199009   120.97581547   176.98100561
 C     11   9   7     1.388840670315   120.95843418   183.05351368
 C      2   1   3     1.220510295974    29.87004541    98.45104884
 C     12  10   9     1.395871817716   118.49107342   359.83502944
 H      7   5   2     1.094601217661    89.18524155   294.04845300
 H      7   5   2     1.094444252841    88.92964128   185.70490802
 H      8   5   2     1.092412807383   109.40045958   134.72654991
 H     10   9   7     1.085504698382   119.46495105   357.27411134
 H     11   9   7     1.085550903161   119.52739384     3.14089195
 H     12  10   9     1.082435568418   121.26921004   179.86155211
 H     13  11   9     1.082359985185   121.28340960   180.15774025
 H      5   2   1     1.018717623734   154.95265537   262.74933138
 H      5   2   1     1.019678094920    63.64169607   192.74381460
 H      1   2   3     0.975699584114    81.35193815    79.45789780

---------------------------
INTERNAL COORDINATES (A.U.)
---------------------------
 O      0   0   0     0.000000000000     0.00000000     0.00000000
 O      1   0   0     4.263390998625     0.00000000     0.00000000
 O      1   2   0    11.546420669594   113.26430518     0.00000000
 O      3   1   2     4.106527988694    85.24680453   221.56123956
 N      2   1   3     5.331421255028    86.61617075   116.04467719
 N      3   1   2     2.337444492302    61.11668298   237.65555661
 C      5   2   1     4.777615030889    72.07074336   291.23061279
 C      5   2   1     2.760773464582    59.02030858   326.42888597
 C      7   5   2     2.843036437588   145.19145105    60.25920758
 C      9   7   5     2.653539053241   120.55478663   264.76014558
 C      9   7   5     2.653529938346   120.35749257    81.52359384
 C     10   9   7     2.625576417912   120.97581547   176.98100561
 C     11   9   7     2.624528510548   120.95843418   183.05351368
 C      2   1   3     2.306430203022    29.87004541    98.45104884
 C     12  10   9     2.637815453542   118.49107342   359.83502944
 H      7   5   2     2.068496527237    89.18524155   294.04845300
 H      7   5   2     2.068199906714    88.92964128   185.70490802
 H      8   5   2     2.064361031142   109.40045958   134.72654991
 H     10   9   7     2.051306597026   119.46495105   357.27411134
 H     11   9   7     2.051393911405   119.52739384     3.14089195
 H     12  10   9     2.045506781926   121.26921004   179.86155211
 H     13  11   9     2.045363950314   121.28340960   180.15774025
 H      5   2   1     1.925097316656   154.95265537   262.74933138
 H      5   2   1     1.926912344158    63.64169607   192.74381460
 H      1   2   3     1.843805002957    81.35193815    79.45789780

---------------------
BASIS SET INFORMATION
---------------------
There are 4 groups of distinct atoms

 Group   1 Type O   : 10s4p1d contracted to 3s2p1d pattern {631/31/1}
 Group   2 Type N   : 10s4p1d contracted to 3s2p1d pattern {631/31/1}
 Group   3 Type C   : 10s4p1d contracted to 3s2p1d pattern {631/31/1}
 Group   4 Type H   : 4s1p contracted to 2s1p pattern {31/1}

Atom   0O    basis set group =>   1
Atom   1O    basis set group =>   1
Atom   2O    basis set group =>   1
Atom   3O    basis set group =>   1
Atom   4N    basis set group =>   2
Atom   5N    basis set group =>   2
Atom   6C    basis set group =>   3
Atom   7C    basis set group =>   3
Atom   8C    basis set group =>   3
Atom   9C    basis set group =>   3
Atom  10C    basis set group =>   3
Atom  11C    basis set group =>   3
Atom  12C    basis set group =>   3
Atom  13C    basis set group =>   3
Atom  14C    basis set group =>   3
Atom  15H    basis set group =>   4
Atom  16H    basis set group =>   4
Atom  17H    basis set group =>   4
Atom  18H    basis set group =>   4
Atom  19H    basis set group =>   4
Atom  20H    basis set group =>   4
Atom  21H    basis set group =>   4
Atom  22H    basis set group =>   4
Atom  23H    basis set group =>   4
Atom  24H    basis set group =>   4
---------------------------------
AUXILIARY/J BASIS SET INFORMATION
---------------------------------
There are 4 groups of distinct atoms

 Group   1 Type O   : 12s5p4d2f1g contracted to 6s4p3d1f1g pattern {711111/2111/211/2/1}
 Group   2 Type N   : 12s5p4d2f1g contracted to 6s4p3d1f1g pattern {711111/2111/211/2/1}
 Group   3 Type C   : 12s5p4d2f1g contracted to 6s4p3d1f1g pattern {711111/2111/211/2/1}
 Group   4 Type H   : 5s2p1d contracted to 3s1p1d pattern {311/2/1}

Atom   0O    basis set group =>   1
Atom   1O    basis set group =>   1
Atom   2O    basis set group =>   1
Atom   3O    basis set group =>   1
Atom   4N    basis set group =>   2
Atom   5N    basis set group =>   2
Atom   6C    basis set group =>   3
Atom   7C    basis set group =>   3
Atom   8C    basis set group =>   3
Atom   9C    basis set group =>   3
Atom  10C    basis set group =>   3
Atom  11C    basis set group =>   3
Atom  12C    basis set group =>   3
Atom  13C    basis set group =>   3
Atom  14C    basis set group =>   3
Atom  15H    basis set group =>   4
Atom  16H    basis set group =>   4
Atom  17H    basis set group =>   4
Atom  18H    basis set group =>   4
Atom  19H    basis set group =>   4
Atom  20H    basis set group =>   4
Atom  21H    basis set group =>   4
Atom  22H    basis set group =>   4
Atom  23H    basis set group =>   4
Atom  24H    basis set group =>   4


           ************************************************************
           *        Program running with 2 parallel MPI-processes     *
           *              working on a common directory               *
           ************************************************************
------------------------------------------------------------------------------
                             ORCA STARTUP CALCULATIONS
                           -- RI-GTO INTEGRALS CHOSEN --
------------------------------------------------------------------------------
------------------------------------------------------------------------------
                   ___                                                        
                  /   \      - P O W E R E D   B Y -                         
                 /     \                                                     
                 |  |  |   _    _      __       _____    __    __             
                 |  |  |  | |  | |    /  \     |  _  \  |  |  /  |          
                  \  \/   | |  | |   /    \    | | | |  |  | /  /          
                 / \  \   | |__| |  /  /\  \   | |_| |  |  |/  /          
                |  |  |   |  __  | /  /__\  \  |    /   |      \           
                |  |  |   | |  | | |   __   |  |    \   |  |\   \          
                \     /   | |  | | |  |  |  |  | |\  \  |  | \   \       
                 \___/    |_|  |_| |__|  |__|  |_| \__\ |__|  \__/        
                                                                              
                      - O R C A' S   B I G   F R I E N D -                    
                                      &                                       
                       - I N T E G R A L  F E E D E R -                       
                                                                              
 v1 FN, 2020, v2 2021, v3 2022-2024                                           
------------------------------------------------------------------------------


----------------------
SHARK INTEGRAL PACKAGE
----------------------

Number of atoms                             ...     25
Number of basis functions                   ...    260
Number of shells                            ...    120
Maximum angular momentum                    ...      2
Integral batch strategy                     ... SHARK/LIBINT Hybrid
RI-J (if used) integral strategy            ... SPLIT-RIJ (Revised 2003 algorithm where possible)
Printlevel                                  ...      1
Contraction scheme used                     ... SEGMENTED contraction
Prescreening option                         ... SCHWARTZ
   Thresh                                   ... 2.500e-11
   Tcut                                     ... 2.500e-12
   Tpresel                                  ... 2.500e-12 
Coulomb Range Separation                    ... NOT USED
Exchange Range Separation                   ... NOT USED
Multipole approximations                    ... NOT USED
Finite Nucleus Model                        ... NOT USED
CABS basis                                  ... NOT available
Auxiliary Coulomb fitting basis             ... AVAILABLE
   # of basis functions in Aux-J            ...    845
   # of shells in Aux-J                     ...    275
   Maximum angular momentum in Aux-J        ...      4
Auxiliary J/K fitting basis                 ... NOT available
Auxiliary Correlation fitting basis         ... NOT available
Auxiliary 'external' fitting basis          ... NOT available

Checking pre-screening integrals            ... done (  0.0 sec) Dimension = 120
   => SHARK Basis and OBASIS are compatible. Storing Pre-screening
Shell pair information
Shell pair cut-off parameter TPreSel        ...   2.5e-12
Total number of shell pairs                 ...      7260
Shell pairs after pre-screening             ...      5766
Total number of primitive shell pairs       ...     38295
Primitive shell pairs kept                  ...     18286
          la=0 lb=0:   1686 shell pairs
          la=1 lb=0:   2087 shell pairs
          la=1 lb=1:    683 shell pairs
          la=2 lb=0:    745 shell pairs
          la=2 lb=1:    474 shell pairs
          la=2 lb=2:     91 shell pairs

Checking whether 4 symmetric matrices of dimension 260 fit in memory
:Max Core in MB      =   3000.00
 MB in use           =     11.29
 MB left             =   2988.71
 MB needed           =      1.04
 Data fit in memory  = YES
Calculating RI/J V-Matrix + Cholesky decomp.... done (  0.0 sec)
Calculating Nuclear repulsion               ... done (  0.0 sec) ENN=    974.022136424602 Eh

Diagonalization of the overlap matrix:
Smallest eigenvalue                        ... 4.317e-04
Time for diagonalization                   ...    0.008 sec
Threshold for overlap eigenvalues          ... 1.000e-07
Number of eigenvalues below threshold      ... 0
Time for construction of square roots      ...    0.003 sec
Total time needed                          ...    0.012 sec

-------------------
DFT GRID GENERATION
-------------------

General Integration Accuracy     IntAcc      ... 4.388
Radial Grid Type                 RadialGrid  ... OptM3 with GC (2021)
Angular Grid (max. ang.)         AngularGrid ... 4 (Lebedev-302)
Angular grid pruning method      GridPruning ... 4 (adaptive)
Weight generation scheme         WeightScheme... mBecke (2022)
Basis function cutoff            BFCut       ... 1.0000e-11
Integration weight cutoff        WCut        ... 1.0000e-14
Partially contracted basis set               ... off
Rotationally invariant grid construction     ... off
Angular grids for H and He will be reduced by one unit

Total number of grid points                  ...   122096
Total number of batches                      ...     1922
Average number of points per batch           ...       63
Average number of grid points per atom       ...     4884

--------------------
COSX GRID GENERATION
--------------------

GRIDX 1
-------
General Integration Accuracy     IntAcc      ... 3.816
Radial Grid Type                 RadialGrid  ... OptM3 with GC (2021)
Angular Grid (max. ang.)         AngularGrid ... 1 (Lebedev-50)
Angular grid pruning method      GridPruning ... 4 (adaptive)
Weight generation scheme         WeightScheme... mBecke (2022)
Basis function cutoff            BFCut       ... 1.0000e-11
Integration weight cutoff        WCut        ... 1.0000e-14
Partially contracted basis set               ... on
Rotationally invariant grid construction     ... off
Angular grids for H and He will be reduced by one unit

Total number of grid points                  ...    15448
Total number of batches                      ...      135
Average number of points per batch           ...      114
Average number of grid points per atom       ...      618
UseSFitting                                  ... on

GRIDX 2
-------
General Integration Accuracy     IntAcc      ... 4.020
Radial Grid Type                 RadialGrid  ... OptM3 with GC (2021)
Angular Grid (max. ang.)         AngularGrid ... 2 (Lebedev-110)
Angular grid pruning method      GridPruning ... 4 (adaptive)
Weight generation scheme         WeightScheme... mBecke (2022)
Basis function cutoff            BFCut       ... 1.0000e-11
Integration weight cutoff        WCut        ... 1.0000e-14
Partially contracted basis set               ... on
Rotationally invariant grid construction     ... off
Angular grids for H and He will be reduced by one unit

Total number of grid points                  ...    34143
Total number of batches                      ...      280
Average number of points per batch           ...      121
Average number of grid points per atom       ...     1366
UseSFitting                                  ... on

GRIDX 3
-------
General Integration Accuracy     IntAcc      ... 4.338
Radial Grid Type                 RadialGrid  ... OptM3 with GC (2021)
Angular Grid (max. ang.)         AngularGrid ... 3 (Lebedev-194)
Angular grid pruning method      GridPruning ... 4 (adaptive)
Weight generation scheme         WeightScheme... mBecke (2022)
Basis function cutoff            BFCut       ... 1.0000e-11
Integration weight cutoff        WCut        ... 1.0000e-14
Partially contracted basis set               ... on
Rotationally invariant grid construction     ... off
Angular grids for H and He will be reduced by one unit

Total number of grid points                  ...    75052
Total number of batches                      ...      596
Average number of points per batch           ...      125
Average number of grid points per atom       ...     3002
UseSFitting                                  ... on
Grids setup in   2.5 sec
Initializing property integral containers    ... done (  0.0 sec)

SHARK setup successfully completed in   2.7 seconds

Maximum memory used throughout the entire STARTUP-calculation: 41.5 MB


           ************************************************************
           *        Program running with 2 parallel MPI-processes     *
           *              working on a common directory               *
           ************************************************************
-------------------------------------------------------------------------------
                                 ORCA GUESS
                   Start orbitals & Density for SCF / CASSCF
-------------------------------------------------------------------------------

------------
SCF SETTINGS
------------
Hamiltonian:
 Density Functional     Method          .... DFT(GTOs)
 Exchange Functional    Exchange        .... B88
   X-Alpha parameter    XAlpha          ....  0.666667
   Becke's b parameter  XBeta           ....  0.004200
 Correlation Functional Correlation     .... LYP
 LDA part of GGA corr.  LDAOpt          .... VWN-5
 Gradients option       PostSCFGGA      .... off
 Hybrid DFT is turned on
   Fraction HF Exchange ScalHFX         ....  0.200000
   Scaling of DF-GGA-X  ScalDFX         ....  0.720000
   Scaling of DF-GGA-C  ScalDFC         ....  0.810000
   Scaling of DF-LDA-C  ScalLDAC        ....  1.000000
   Perturbative correction              ....  0.000000
   NL short-range parameter             ....  4.800000
 RI-approximation to the Coulomb term is turned on
   Number of AuxJ basis functions       .... 845
   RIJ-COSX (HFX calculated with COS-X)).... on


General Settings:
 Integral files         IntName         .... /kaggle/working/Phe-NO2-2/Phe-NO2_InterFrag
 Hartree-Fock type      HFTyp           .... RHF
 Total Charge           Charge          ....    0
 Multiplicity           Mult            ....    1
 Number of Electrons    NEL             ....  110
 Basis Dimension        Dim             ....  260
 Nuclear Repulsion      ENuc            ....    974.0221364246 Eh

Convergence Acceleration:
 AO-DIIS                CNVDIIS         .... on
   Start iteration      DIISMaxIt       ....    12
   Startup error        DIISStart       ....  0.200000
   # of expansion vecs  DIISMaxEq       ....     5
   Bias factor          DIISBfac        ....   1.050
   Max. coefficient     DIISMaxC        ....  10.000
 MO-DIIS                CNVKDIIS        .... off
 Trust-Rad. Augm. Hess. CNVTRAH         .... auto
   Auto Start mean grad. ratio tolernc. ....  1.125000
   Auto Start start iteration           ....    50
   Auto Start num. interpolation iter.  ....    10
   Max. Number of Micro iterations      ....    24
   Max. Number of Macro iterations      .... Maxiter - #DIIS iter
   Number of Davidson start vectors     ....     2
   Converg. threshold    (grad. norm)   ....   1.000e-05
   Grad. Scal. Fac. for Micro threshold ....   0.100
   Minimum threshold for Micro iter.    ....   1.000e-02
   NR start threshold (gradient norm)   ....   1.000e-04
   Initial trust radius                 ....   0.400
   Minimum AH scaling param. (alpha)    ....   1.000
   Maximum AH scaling param. (alpha)    .... 1000.000
   Quad. conv. algorithm                .... NR
   White noise on init. David. guess    .... on
   Maximum white noise                  ....   0.010
   Pseudo random numbers                .... off
   Inactive MOs                         .... canonical
   Orbital update algorithm             .... Taylor
   Preconditioner                       .... Diag
   Full preconditioner red. dimension   ....   250
 SOSCF                 CNVSOSCF           .... on
   Start iteration     SOSCFMaxIt         ....   150
   Startup grad/error  SOSCFStart         ....  0.003300
   Hessian update      SOSCFHessUp        .... L-BFGS
   Autom. constraints  SOSCFAutoConstrain .... off
 Level Shifting         CNVShift        .... on
   Level shift para.    LevelShift      ....    0.2500
   Turn off err/grad.   ShiftErr        ....    0.0010
 Zerner damping         CNVZerner       .... off
 Static damping         CNVDamp         .... on
   Fraction old density DampFac         ....    0.7000
   Max. Damping (<1)    DampMax         ....    0.9800
   Min. Damping (>=0)   DampMin         ....    0.0000
   Turn off err/grad.   DampErr         ....    0.1000

SCF Procedure:
 Maximum # iterations   MaxIter         ....   125
 SCF integral mode      SCFMode         .... Direct
   Integral package                     .... SHARK and LIBINT hybrid scheme
 Reset frequency        DirectResetFreq ....    20
 Integral Threshold     Thresh          ....  2.500e-11 Eh
 Primitive CutOff       TCut            ....  2.500e-12 Eh

Convergence Tolerance:
 Convergence Check Mode ConvCheckMode   .... Total+1el-Energy
 Convergence forced     ConvForced      .... 0
 Energy Change          TolE            ....  1.000e-08 Eh
 1-El. energy change                    ....  1.000e-05 Eh
 Orbital Gradient       TolG            ....  1.000e-05
 Orbital Rotation angle TolX            ....  1.000e-05
 DIIS Error             TolErr          ....  5.000e-07

------------------------------
INITIAL GUESS: MODEL POTENTIAL
------------------------------
Loading Hartree-Fock densities                     ... done
Calculating cut-offs                               ... done
Initializing the effective Hamiltonian             ... done
Setting up the integral package (SHARK)            ... done
Starting the Coulomb interaction                   ... done (   0.2 sec)
Making the grid                                    ... done (   0.3 sec)
Mapping shells                                     ... done
Starting the XC term evaluation                    ... done (   0.2 sec)
  promolecular density results
     # of electrons  =    110.000424566
     EX              =    -95.181824008
     EC              =     -3.816655909
     EX+EC           =    -98.998479917
Transforming the Hamiltonian                       ... done (   0.0 sec)
Diagonalizing the Hamiltonian                      ... done (   0.0 sec)
Back transforming the eigenvectors                 ... done (   0.0 sec)
Now organizing SCF variables                       ... done
                      ------------------
                      INITIAL GUESS DONE (   0.8 sec)
                      ------------------
             **** ENERGY FILE WAS UPDATED (/kaggle/working/Phe-NO2-2/Phe-NO2_InterFrag.en.tmp) ****
Finished Guess after   1.1 sec
Maximum memory used throughout the entire GUESS-calculation: 16.5 MB


           ************************************************************
           *        Program running with 2 parallel MPI-processes     *
           *              working on a common directory               *
           ************************************************************

-------------------------------------------------------------------------------------------
                                      ORCA LEAN-SCF
                              memory conserving SCF solver
-------------------------------------------------------------------------------------------

----------------------------------------D-I-I-S--------------------------------------------
Iteration    Energy (Eh)           Delta-E    RMSDP     MaxDP     DIISErr   Damp  Time(sec)
-------------------------------------------------------------------------------------------
               ***  Starting incremental Fock matrix formation  ***
    1    -758.4161556196524998     0.00e+00  4.09e-03  9.16e-02  2.61e-01  0.700   7.3
    2    -758.6434274871344314    -2.27e-01  2.54e-03  5.12e-02  1.13e-01  0.700   3.7
                               ***Turning on AO-DIIS***
    3    -758.7214517406591767    -7.80e-02  1.01e-03  1.63e-02  3.91e-02  0.700   3.7
    4    -758.7719406740379782    -5.05e-02  1.61e-03  2.18e-02  1.59e-02  0.000   3.4
    5    -758.8858372549873366    -1.14e-01  3.77e-04  6.51e-03  7.26e-03  0.000   3.5
                              *** Initializing SOSCF ***
---------------------------------------S-O-S-C-F--------------------------------------
Iteration    Energy (Eh)           Delta-E    RMSDP     MaxDP     MaxGrad    Time(sec)
--------------------------------------------------------------------------------------
    6    -758.8865270554472318    -6.90e-04  1.15e-04  2.05e-03  2.03e-03     3.3
               *** Restarting incremental Fock matrix formation ***
    7    -758.8865481821110279    -2.11e-05  8.44e-05  1.19e-03  3.50e-04     7.5
    8    -758.8865445441645079     3.64e-06  3.73e-05  8.72e-04  7.24e-04     5.2
    9    -758.8865553052485211    -1.08e-05  2.35e-05  4.60e-04  1.58e-04     4.8
   10    -758.8865543822753352     9.23e-07  1.40e-05  4.38e-04  2.81e-04     4.5
   11    -758.8865557704009461    -1.39e-06  1.19e-05  3.03e-04  1.17e-04     4.2
   12    -758.8865554118392538     3.59e-07  8.00e-06  2.10e-04  2.04e-04     4.1
   13    -758.8865558791740114    -4.67e-07  3.48e-06  7.82e-05  1.85e-05     3.9
   14    -758.8865558546838201     2.45e-08  2.16e-06  4.58e-05  3.33e-05     3.6
   15    -758.8865558844693169    -2.98e-08  6.61e-07  1.31e-05  5.20e-06     3.3
   16    -758.8865558961338138    -1.17e-08  3.86e-07  8.33e-06  6.96e-06     2.6
   17    -758.8865558866480114     9.49e-09  9.41e-08  2.29e-06  5.52e-07     2.4
                 **** Energy Check signals convergence ****

               *****************************************************
               *                     SUCCESS                       *
               *           SCF CONVERGED AFTER  17 CYCLES          *
               *****************************************************

Recomputing exchange energy using gridx3       ... done (   12.383 sec)
Old exchange energy                            :    -19.261298045 Eh
New exchange energy                            :    -19.261317383 Eh
Exchange energy change after final integration :     -0.000019338 Eh
Total energy after final integration           :   -758.886575224 Eh
             **** ENERGY FILE WAS UPDATED (/kaggle/working/Phe-NO2-2/Phe-NO2_InterFrag.en.tmp) ****

----------------
TOTAL SCF ENERGY
----------------

Total Energy       :       -758.88657522352310 Eh          -20650.35356 eV

Components:
Nuclear Repulsion  :        974.02213642460197 Eh           26504.48979 eV
Electronic Energy  :      -1732.90869231017746 Eh          -47154.84282 eV
One Electron Energy:      -2967.70819679648139 Eh          -80755.44556 eV
Two Electron Energy:       1234.79950448630393 Eh           33600.60274 eV

Virial components:
Potential Energy   :      -1513.18074366535166 Eh          -41175.74137 eV
Kinetic Energy     :        754.29416844182867 Eh           20525.38781 eV
Virial Ratio       :          2.00608834984258

DFT components:
N(Alpha)           :       54.999989350828 electrons
N(Beta)            :       54.999989350828 electrons
N(Total)           :      109.999978701656 electrons
E(X)               :      -76.636086407044 Eh       
E(C)               :       -4.490041766146 Eh       
E(XC)              :      -81.126128173190 Eh       

---------------
SCF CONVERGENCE
---------------

  Last Energy change         ...   -9.4858e-09  Tolerance :   1.0000e-08
  Last MAX-Density change    ...    2.2898e-06  Tolerance :   1.0000e-07
  Last RMS-Density change    ...    9.4091e-08  Tolerance :   5.0000e-09
  Last DIIS Error            ...    2.0296e-03  Tolerance :   5.0000e-07
  Last Orbital Gradient      ...    5.5213e-07  Tolerance :   1.0000e-05
  Last Orbital Rotation      ...    1.9204e-06  Tolerance :   1.0000e-05


----------------
ORBITAL ENERGIES
----------------

  NO   OCC          E(Eh)            E(eV) 
   0   2.0000     -19.205346      -522.6040 
   1   2.0000     -19.170491      -521.6556 
   2   2.0000     -19.170406      -521.6533 
   3   2.0000     -19.145493      -520.9753 
   4   2.0000     -14.561809      -396.2470 
   5   2.0000     -14.327815      -389.8797 
   6   2.0000     -10.325711      -280.9769 
   7   2.0000     -10.248003      -278.8623 
   8   2.0000     -10.240279      -278.6522 
   9   2.0000     -10.223005      -278.1821 
  10   2.0000     -10.216527      -278.0058 
  11   2.0000     -10.216267      -277.9988 
  12   2.0000     -10.211209      -277.8611 
  13   2.0000     -10.210356      -277.8379 
  14   2.0000     -10.210206      -277.8338 
  15   2.0000      -1.215140       -33.0657 
  16   2.0000      -1.116006       -30.3681 
  17   2.0000      -1.039284       -28.2803 
  18   2.0000      -1.022274       -27.8175 
  19   2.0000      -0.910001       -24.7624 
  20   2.0000      -0.892653       -24.2903 
  21   2.0000      -0.826523       -22.4908 
  22   2.0000      -0.775313       -21.0974 
  23   2.0000      -0.766555       -20.8590 
  24   2.0000      -0.712086       -19.3768 
  25   2.0000      -0.666484       -18.1360 
  26   2.0000      -0.637521       -17.3478 
  27   2.0000      -0.602038       -16.3823 
  28   2.0000      -0.588117       -16.0035 
  29   2.0000      -0.553469       -15.0606 
  30   2.0000      -0.541367       -14.7313 
  31   2.0000      -0.525266       -14.2932 
  32   2.0000      -0.508998       -13.8505 
  33   2.0000      -0.496028       -13.4976 
  34   2.0000      -0.487673       -13.2703 
  35   2.0000      -0.483819       -13.1654 
  36   2.0000      -0.476548       -12.9675 
  37   2.0000      -0.465305       -12.6616 
  38   2.0000      -0.449564       -12.2333 
  39   2.0000      -0.446419       -12.1477 
  40   2.0000      -0.431761       -11.7488 
  41   2.0000      -0.414560       -11.2808 
  42   2.0000      -0.403020       -10.9667 
  43   2.0000      -0.389995       -10.6123 
  44   2.0000      -0.381331       -10.3765 
  45   2.0000      -0.375376       -10.2145 
  46   2.0000      -0.365749        -9.9525 
  47   2.0000      -0.326498        -8.8845 
  48   2.0000      -0.304334        -8.2814 
  49   2.0000      -0.302497        -8.2314 
  50   2.0000      -0.286165        -7.7869 
  51   2.0000      -0.282236        -7.6800 
  52   2.0000      -0.280646        -7.6368 
  53   2.0000      -0.278433        -7.5766 
  54   2.0000      -0.251342        -6.8394 
  55   0.0000      -0.088653        -2.4124 
  56   0.0000      -0.029384        -0.7996 
  57   0.0000      -0.004116        -0.1120 
  58   0.0000       0.001568         0.0427 
  59   0.0000       0.067973         1.8496 
  60   0.0000       0.069594         1.8937 
  61   0.0000       0.082836         2.2541 
  62   0.0000       0.104132         2.8336 
  63   0.0000       0.123562         3.3623 
  64   0.0000       0.133374         3.6293 
  65   0.0000       0.140089         3.8120 
  66   0.0000       0.154001         4.1906 
  67   0.0000       0.166100         4.5198 
  68   0.0000       0.177105         4.8193 
  69   0.0000       0.184253         5.0138 
  70   0.0000       0.197298         5.3687 
  71   0.0000       0.210575         5.7300 
  72   0.0000       0.220283         5.9942 
  73   0.0000       0.229984         6.2582 
  74   0.0000       0.250239         6.8093 
  75   0.0000       0.266908         7.2629 
  76   0.0000       0.276140         7.5141 
  77   0.0000       0.300935         8.1889 
  78   0.0000       0.303699         8.2641 
  79   0.0000       0.320635         8.7249 
  80   0.0000       0.344126         9.3642 
  81   0.0000       0.361025         9.8240 
  82   0.0000       0.375884        10.2283 
  83   0.0000       0.475120        12.9287 
  84   0.0000       0.480608        13.0780 
  85   0.0000       0.487037        13.2529 
  86   0.0000       0.502514        13.6741 
  87   0.0000       0.507525        13.8105 
  88   0.0000       0.520227        14.1561 
  89   0.0000       0.527773        14.3614 
  90   0.0000       0.549908        14.9637 
  91   0.0000       0.557947        15.1825 
  92   0.0000       0.565527        15.3888 
  93   0.0000       0.575387        15.6571 
  94   0.0000       0.583778        15.8854 
  95   0.0000       0.592280        16.1168 
  96   0.0000       0.615076        16.7371 
  97   0.0000       0.620302        16.8793 
  98   0.0000       0.631723        17.1901 
  99   0.0000       0.633562        17.2401 
 100   0.0000       0.649619        17.6770 
 101   0.0000       0.664260        18.0754 
 102   0.0000       0.687149        18.6983 
 103   0.0000       0.704214        19.1626 
 104   0.0000       0.721002        19.6195 
 105   0.0000       0.734964        19.9994 
 106   0.0000       0.739336        20.1184 
 107   0.0000       0.745649        20.2902 
 108   0.0000       0.769239        20.9320 
 109   0.0000       0.777506        21.1570 
 110   0.0000       0.779919        21.2227 
 111   0.0000       0.784770        21.3547 
 112   0.0000       0.792605        21.5679 
 113   0.0000       0.811894        22.0928 
 114   0.0000       0.826028        22.4774 
 115   0.0000       0.832262        22.6470 
 116   0.0000       0.836968        22.7751 
 117   0.0000       0.843502        22.9528 
 118   0.0000       0.853835        23.2340 
 119   0.0000       0.870049        23.6752 
 120   0.0000       0.890315        24.2267 
 121   0.0000       0.901925        24.5426 
 122   0.0000       0.919393        25.0180 
 123   0.0000       0.924468        25.1560 
 124   0.0000       0.942046        25.6344 
 125   0.0000       0.947833        25.7918 
 126   0.0000       0.956119        26.0173 
 127   0.0000       0.959448        26.1079 
 128   0.0000       0.977626        26.6026 
 129   0.0000       0.988970        26.9112 
 130   0.0000       1.000659        27.2293 
 131   0.0000       1.002950        27.2916 
 132   0.0000       1.011584        27.5266 
 133   0.0000       1.055762        28.7288 
 134   0.0000       1.066385        29.0178 
 135   0.0000       1.081702        29.4346 
 136   0.0000       1.086470        29.5644 
 137   0.0000       1.099289        29.9132 
 138   0.0000       1.115351        30.3502 
 139   0.0000       1.135720        30.9045 
 140   0.0000       1.169659        31.8280 
 141   0.0000       1.196352        32.5544 
 142   0.0000       1.205386        32.8002 
 143   0.0000       1.237424        33.6720 
 144   0.0000       1.268563        34.5194 
 145   0.0000       1.288213        35.0541 
 146   0.0000       1.341387        36.5010 
 147   0.0000       1.351729        36.7824 
 148   0.0000       1.359660        36.9982 
 149   0.0000       1.361194        37.0400 
 150   0.0000       1.374343        37.3978 
 151   0.0000       1.381244        37.5856 
 152   0.0000       1.383841        37.6562 
 153   0.0000       1.422678        38.7130 
 154   0.0000       1.423247        38.7285 
 155   0.0000       1.433719        39.0135 
 156   0.0000       1.453477        39.5511 
 157   0.0000       1.475042        40.1379 
 158   0.0000       1.487473        40.4762 
 159   0.0000       1.530250        41.6402 
 160   0.0000       1.580315        43.0026 
 161   0.0000       1.606095        43.7041 
 162   0.0000       1.658117        45.1197 
 163   0.0000       1.697594        46.1939 
 164   0.0000       1.710105        46.5343 
 165   0.0000       1.721264        46.8380 
 166   0.0000       1.733754        47.1779 
 167   0.0000       1.734196        47.1899 
 168   0.0000       1.756862        47.8066 
 169   0.0000       1.764693        48.0197 
 170   0.0000       1.777672        48.3729 
 171   0.0000       1.781907        48.4881 
 172   0.0000       1.800935        49.0059 
 173   0.0000       1.815606        49.4051 
 174   0.0000       1.825643        49.6783 
 175   0.0000       1.847895        50.2838 
 176   0.0000       1.852875        50.4193 
 177   0.0000       1.867297        50.8117 
 178   0.0000       1.872575        50.9554 
 179   0.0000       1.891413        51.4680 
 180   0.0000       1.907122        51.8954 
 181   0.0000       1.911779        52.0222 
 182   0.0000       1.934749        52.6472 
 183   0.0000       1.938458        52.7481 
 184   0.0000       1.948338        53.0170 
 185   0.0000       1.952056        53.1182 
 186   0.0000       1.978249        53.8309 
 187   0.0000       1.988283        54.1039 
 188   0.0000       2.002773        54.4982 
 189   0.0000       2.026472        55.1431 
 190   0.0000       2.045265        55.6545 
 191   0.0000       2.079500        56.5861 
 192   0.0000       2.079945        56.5982 
 193   0.0000       2.111007        57.4434 
 194   0.0000       2.117696        57.6254 
 195   0.0000       2.127509        57.8925 
 196   0.0000       2.151901        58.5562 
 197   0.0000       2.160114        58.7797 
 198   0.0000       2.190425        59.6045 
 199   0.0000       2.233506        60.7768 
 200   0.0000       2.248717        61.1907 
 201   0.0000       2.253167        61.3118 
 202   0.0000       2.273861        61.8749 
 203   0.0000       2.284889        62.1750 
 204   0.0000       2.289161        62.2912 
 205   0.0000       2.308746        62.8242 
 206   0.0000       2.337401        63.6039 
 207   0.0000       2.352052        64.0026 
 208   0.0000       2.377147        64.6855 
 209   0.0000       2.381632        64.8075 
 210   0.0000       2.391777        65.0836 
 211   0.0000       2.397233        65.2320 
 212   0.0000       2.414383        65.6987 
 213   0.0000       2.427387        66.0526 
 214   0.0000       2.435721        66.2793 
 215   0.0000       2.481849        67.5345 
 216   0.0000       2.490057        67.7579 
 217   0.0000       2.506383        68.2022 
 218   0.0000       2.529546        68.8324 
 219   0.0000       2.549049        69.3631 
 220   0.0000       2.566122        69.8277 
 221   0.0000       2.573352        70.0245 
 222   0.0000       2.582664        70.2779 
 223   0.0000       2.590064        70.4792 
 224   0.0000       2.608736        70.9873 
 225   0.0000       2.632611        71.6370 
 226   0.0000       2.654079        72.2211 
 227   0.0000       2.672467        72.7215 
 228   0.0000       2.700863        73.4942 
 229   0.0000       2.703801        73.5742 
 230   0.0000       2.727449        74.2177 
 231   0.0000       2.745233        74.7016 
 232   0.0000       2.765780        75.2607 
 233   0.0000       2.791780        75.9682 
 234   0.0000       2.809600        76.4531 
 235   0.0000       2.829710        77.0003 
 236   0.0000       2.841638        77.3249 
 237   0.0000       2.872474        78.1640 
 238   0.0000       2.894754        78.7703 
 239   0.0000       2.906321        79.0850 
 240   0.0000       2.910753        79.2056 
 241   0.0000       2.923766        79.5597 
 242   0.0000       2.959826        80.5409 
 243   0.0000       3.045391        82.8693 
 244   0.0000       3.062502        83.3349 
 245   0.0000       3.070184        83.5440 
 246   0.0000       3.082840        83.8883 
 247   0.0000       3.155060        85.8536 
 248   0.0000       3.196565        86.9830 
 249   0.0000       3.235646        88.0464 
 250   0.0000       3.278162        89.2033 
 251   0.0000       3.316276        90.2405 
 252   0.0000       3.336669        90.7954 
 253   0.0000       3.353450        91.2520 
 254   0.0000       3.364256        91.5461 
 255   0.0000       3.437417        93.5369 
 256   0.0000       3.491843        95.0179 
 257   0.0000       3.522139        95.8423 
 258   0.0000       3.553669        96.7003 
 259   0.0000       3.834821       104.3508 

                    ********************************
                    * MULLIKEN POPULATION ANALYSIS *
                    ********************************

-----------------------
MULLIKEN ATOMIC CHARGES
-----------------------
   0 O :   -0.462374
   1 O :   -0.441621
   2 O :   -0.384061
   3 O :   -0.383770
   4 N :   -0.550456
   5 N :    0.373382
   6 C :   -0.263934
   7 C :   -0.013898
   8 C :    0.135272
   9 C :   -0.136636
  10 C :   -0.127533
  11 C :   -0.085065
  12 C :   -0.081317
  13 C :    0.552025
  14 C :    0.219760
  15 H :    0.117862
  16 H :    0.109591
  17 H :    0.126187
  18 H :    0.109846
  19 H :    0.096250
  20 H :    0.138163
  21 H :    0.137892
  22 H :    0.235723
  23 H :    0.250253
  24 H :    0.328457
Sum of atomic charges:    0.0000000

--------------------------------
MULLIKEN REDUCED ORBITAL CHARGES
--------------------------------
  0 O s       :     3.825160  s :     3.825160
      pz      :     1.602647  p :     4.613653
      px      :     1.642338
      py      :     1.368668
      dz2     :     0.006656  d :     0.023561
      dxz     :     0.005824
      dyz     :     0.002169
      dx2y2   :     0.007405
      dxy     :     0.001508

  1 O s       :     3.860959  s :     3.860959
      pz      :     1.491438  p :     4.552802
      px      :     1.460361
      py      :     1.601003
      dz2     :     0.006010  d :     0.027860
      dxz     :     0.004251
      dyz     :     0.006244
      dx2y2   :     0.005401
      dxy     :     0.005954

  2 O s       :     3.924600  s :     3.924600
      pz      :     1.466589  p :     4.422241
      px      :     1.732490
      py      :     1.223162
      dz2     :     0.005363  d :     0.037219
      dxz     :     0.003190
      dyz     :     0.010330
      dx2y2   :     0.010236
      dxy     :     0.008101

  3 O s       :     3.924679  s :     3.924679
      pz      :     1.335558  p :     4.421871
      px      :     1.566524
      py      :     1.519789
      dz2     :     0.007804  d :     0.037220
      dxz     :     0.008131
      dyz     :     0.007499
      dx2y2   :     0.005171
      dxy     :     0.008615

  4 N s       :     3.607089  s :     3.607089
      pz      :     1.502505  p :     3.912813
      px      :     1.257351
      py      :     1.152958
      dz2     :     0.007816  d :     0.030554
      dxz     :     0.003688
      dyz     :     0.006081
      dx2y2   :     0.010108
      dxy     :     0.002861

  5 N s       :     3.368769  s :     3.368769
      pz      :     1.065390  p :     3.107627
      px      :     1.078244
      py      :     0.963994
      dz2     :     0.026430  d :     0.150221
      dxz     :     0.019176
      dyz     :     0.028474
      dx2y2   :     0.040461
      dxy     :     0.035680

  6 C s       :     3.241371  s :     3.241371
      pz      :     0.993084  p :     2.985295
      px      :     0.950376
      py      :     1.041835
      dz2     :     0.008074  d :     0.037268
      dxz     :     0.008518
      dyz     :     0.004824
      dx2y2   :     0.011056
      dxy     :     0.004797

  7 C s       :     3.184725  s :     3.184725
      pz      :     0.988705  p :     2.771816
      px      :     0.840880
      py      :     0.942231
      dz2     :     0.010327  d :     0.057356
      dxz     :     0.015176
      dyz     :     0.006355
      dx2y2   :     0.017161
      dxy     :     0.008337

  8 C s       :     3.143963  s :     3.143963
      pz      :     0.902948  p :     2.679580
      px      :     0.877900
      py      :     0.898732
      dz2     :     0.006023  d :     0.041185
      dxz     :     0.007558
      dyz     :     0.006036
      dx2y2   :     0.010933
      dxy     :     0.010635

  9 C s       :     3.194955  s :     3.194955
      pz      :     0.999834  p :     2.907171
      px      :     0.960296
      py      :     0.947041
      dz2     :     0.003361  d :     0.034510
      dxz     :     0.006823
      dyz     :     0.005615
      dx2y2   :     0.008753
      dxy     :     0.009957

 10 C s       :     3.192574  s :     3.192574
      pz      :     0.967082  p :     2.900457
      px      :     0.945912
      py      :     0.987463
      dz2     :     0.004374  d :     0.034502
      dxz     :     0.006857
      dyz     :     0.004878
      dx2y2   :     0.009135
      dxy     :     0.009258

 11 C s       :     3.179124  s :     3.179124
      pz      :     0.949582  p :     2.871464
      px      :     0.950103
      py      :     0.971779
      dz2     :     0.004945  d :     0.034478
      dxz     :     0.007161
      dyz     :     0.004638
      dx2y2   :     0.007665
      dxy     :     0.010068

 12 C s       :     3.177382  s :     3.177382
      pz      :     0.955503  p :     2.869447
      px      :     0.950969
      py      :     0.962976
      dz2     :     0.003438  d :     0.034487
      dxz     :     0.007287
      dyz     :     0.005597
      dx2y2   :     0.009083
      dxy     :     0.009082

 13 C s       :     2.976947  s :     2.976947
      pz      :     0.721626  p :     2.348139
      px      :     0.725446
      py      :     0.901067
      dz2     :     0.028966  d :     0.122889
      dxz     :     0.023463
      dyz     :     0.022485
      dx2y2   :     0.029548
      dxy     :     0.018427

 14 C s       :     3.111081  s :     3.111081
      pz      :     0.987413  p :     2.620540
      px      :     0.737865
      py      :     0.895263
      dz2     :     0.007685  d :     0.048619
      dxz     :     0.007248
      dyz     :     0.007123
      dx2y2   :     0.014678
      dxy     :     0.011885

 15 H s       :     0.870765  s :     0.870765
      pz      :     0.005644  p :     0.011373
      px      :     0.002709
      py      :     0.003020

 16 H s       :     0.878879  s :     0.878879
      pz      :     0.002426  p :     0.011531
      px      :     0.002179
      py      :     0.006926

 17 H s       :     0.862961  s :     0.862961
      pz      :     0.005895  p :     0.010853
      px      :     0.002188
      py      :     0.002769

 18 H s       :     0.877781  s :     0.877781
      pz      :     0.004348  p :     0.012373
      px      :     0.004089
      py      :     0.003936

 19 H s       :     0.891404  s :     0.891404
      pz      :     0.003308  p :     0.012345
      px      :     0.002619
      py      :     0.006418

 20 H s       :     0.849195  s :     0.849195
      pz      :     0.003056  p :     0.012642
      px      :     0.003005
      py      :     0.006581

 21 H s       :     0.849452  s :     0.849452
      pz      :     0.004303  p :     0.012656
      px      :     0.004660
      py      :     0.003692

 22 H s       :     0.740447  s :     0.740447
      pz      :     0.006670  p :     0.023831
      px      :     0.005281
      py      :     0.011880

 23 H s       :     0.725919  s :     0.725919
      pz      :     0.010485  p :     0.023827
      px      :     0.006371
      py      :     0.006971

 24 H s       :     0.634008  s :     0.634008
      pz      :     0.007517  p :     0.037535
      px      :     0.007866
      py      :     0.022152


------------------------
MULLIKEN OVERLAP CHARGES
------------------------
B(  0-O ,  1-O ) :  -0.1622 B(  0-O ,  7-C ) :  -0.1607 B(  0-O , 13-C ) :   0.5883 
B(  0-O , 24-H ) :   0.5497 B(  1-O ,  7-C ) :  -0.1620 B(  1-O , 13-C ) :   1.2253 
B(  2-O ,  3-O ) :  -0.2139 B(  2-O ,  5-N ) :   0.7149 B(  2-O , 14-C ) :  -0.2005 
B(  3-O ,  5-N ) :   0.7148 B(  3-O , 14-C ) :  -0.2002 B(  4-N ,  6-C ) :  -0.1168 
B(  4-N ,  7-C ) :   0.6777 B(  4-N , 13-C ) :  -0.0790 B(  4-N , 17-H ) :  -0.0754 
B(  4-N , 22-H ) :   0.6844 B(  4-N , 23-H ) :   0.6765 B(  5-N , 11-C ) :  -0.0815 
B(  5-N , 12-C ) :  -0.0809 B(  5-N , 14-C ) :   0.4147 B(  6-C ,  7-C ) :   0.6661 
B(  6-C ,  8-C ) :   0.6043 B(  6-C ,  9-C ) :  -0.1021 B(  6-C , 10-C ) :  -0.1195 
B(  6-C , 13-C ) :  -0.0594 B(  6-C , 15-H ) :   0.7228 B(  6-C , 16-H ) :   0.7333 
B(  6-C , 17-H ) :  -0.0953 B(  7-C ,  8-C ) :  -0.0643 B(  7-C , 13-C ) :   0.5984 
B(  7-C , 15-H ) :  -0.0686 B(  7-C , 16-H ) :  -0.0742 B(  7-C , 17-H ) :   0.7339 
B(  7-C , 22-H ) :  -0.0887 B(  7-C , 23-H ) :  -0.0831 B(  8-C ,  9-C ) :   1.0686 
B(  8-C , 10-C ) :   1.0705 B(  8-C , 11-C ) :  -0.0618 B(  8-C , 12-C ) :  -0.0539 
B(  8-C , 14-C ) :  -0.0683 B(  8-C , 15-H ) :  -0.0516 B(  8-C , 18-H ) :  -0.0833 
B(  8-C , 19-H ) :  -0.0892 B(  9-C , 10-C ) :  -0.0539 B(  9-C , 11-C ) :   0.9380 
B(  9-C , 12-C ) :  -0.0909 B(  9-C , 18-H ) :   0.7348 B(  9-C , 20-H ) :  -0.0632 
B( 10-C , 11-C ) :  -0.0904 B( 10-C , 12-C ) :   0.9506 B( 10-C , 19-H ) :   0.7359 
B( 10-C , 21-H ) :  -0.0640 B( 11-C , 12-C ) :  -0.1667 B( 11-C , 14-C ) :   0.9899 
B( 11-C , 18-H ) :  -0.0707 B( 11-C , 20-H ) :   0.7213 B( 12-C , 14-C ) :   0.9883 
B( 12-C , 19-H ) :  -0.0725 B( 12-C , 21-H ) :   0.7214 B( 13-C , 17-H ) :  -0.0647 
B( 14-C , 20-H ) :  -0.0617 B( 14-C , 21-H ) :  -0.0612 B( 15-H , 16-H ) :  -0.0642 
B( 22-H , 23-H ) :  -0.0637 


                     *******************************
                     * LOEWDIN POPULATION ANALYSIS *
                     *******************************

----------------------
LOEWDIN ATOMIC CHARGES
----------------------
   0 O :   -0.140417
   1 O :   -0.240802
   2 O :   -0.222910
   3 O :   -0.222561
   4 N :   -0.246378
   5 N :    0.262064
   6 C :   -0.124059
   7 C :   -0.035018
   8 C :    0.007576
   9 C :   -0.070297
  10 C :   -0.067543
  11 C :   -0.041419
  12 C :   -0.039532
  13 C :    0.149926
  14 C :   -0.011025
  15 H :    0.079684
  16 H :    0.077061
  17 H :    0.081054
  18 H :    0.083090
  19 H :    0.078318
  20 H :    0.097656
  21 H :    0.097700
  22 H :    0.125359
  23 H :    0.131672
  24 H :    0.190798

-------------------------------
LOEWDIN REDUCED ORBITAL CHARGES
-------------------------------
  0 O s       :     3.474295  s :     3.474295
      pz      :     1.605628  p :     4.616398
      px      :     1.635981
      py      :     1.374789
      dz2     :     0.011587  d :     0.049723
      dxz     :     0.013240
      dyz     :     0.005833
      dx2y2   :     0.014749
      dxy     :     0.004313

  1 O s       :     3.562317  s :     3.562317
      pz      :     1.512589  p :     4.623147
      px      :     1.477126
      py      :     1.633431
      dz2     :     0.009084  d :     0.055338
      dxz     :     0.010124
      dyz     :     0.014092
      dx2y2   :     0.009412
      dxy     :     0.012626

  2 O s       :     3.613873  s :     3.613873
      pz      :     1.480189  p :     4.531196
      px      :     1.728071
      py      :     1.322937
      dz2     :     0.010376  d :     0.077840
      dxz     :     0.006065
      dyz     :     0.021881
      dx2y2   :     0.020753
      dxy     :     0.018766

  3 O s       :     3.613907  s :     3.613907
      pz      :     1.379840  p :     4.530812
      px      :     1.600879
      py      :     1.550093
      dz2     :     0.012800  d :     0.077842
      dxz     :     0.018950
      dyz     :     0.017158
      dx2y2   :     0.009883
      dxy     :     0.019052

  4 N s       :     3.209884  s :     3.209884
      pz      :     1.495032  p :     3.977979
      px      :     1.304731
      py      :     1.178216
      dz2     :     0.012172  d :     0.058515
      dxz     :     0.007335
      dyz     :     0.009531
      dx2y2   :     0.021628
      dxy     :     0.007848

  5 N s       :     3.026447  s :     3.026447
      pz      :     1.102282  p :     3.356015
      px      :     1.144647
      py      :     1.109086
      dz2     :     0.055649  d :     0.355474
      dxz     :     0.045012
      dyz     :     0.073091
      dx2y2   :     0.096349
      dxy     :     0.085373

  6 C s       :     2.902088  s :     2.902088
      pz      :     1.052358  p :     3.140569
      px      :     1.016385
      py      :     1.071827
      dz2     :     0.016909  d :     0.081401
      dxz     :     0.020081
      dyz     :     0.009439
      dx2y2   :     0.024468
      dxy     :     0.010506

  7 C s       :     2.882428  s :     2.882428
      pz      :     1.050749  p :     3.025805
      px      :     0.955590
      py      :     1.019466
      dz2     :     0.022019  d :     0.126784
      dxz     :     0.034145
      dyz     :     0.013251
      dx2y2   :     0.040021
      dxy     :     0.017349

  8 C s       :     2.879206  s :     2.879206
      pz      :     0.965720  p :     3.011977
      px      :     1.017141
      py      :     1.029116
      dz2     :     0.013298  d :     0.101240
      dxz     :     0.017199
      dyz     :     0.015665
      dx2y2   :     0.028300
      dxy     :     0.026779

  9 C s       :     2.896112  s :     2.896112
      pz      :     1.009145  p :     3.090812
      px      :     1.048951
      py      :     1.032716
      dz2     :     0.007553  d :     0.083373
      dxz     :     0.015080
      dyz     :     0.011942
      dx2y2   :     0.022741
      dxy     :     0.026057

 10 C s       :     2.894691  s :     2.894691
      pz      :     1.004770  p :     3.089379
      px      :     1.046522
      py      :     1.038086
      dz2     :     0.009338  d :     0.083474
      dxz     :     0.017471
      dyz     :     0.010070
      dx2y2   :     0.023344
      dxy     :     0.023252

 11 C s       :     2.897514  s :     2.897514
      pz      :     0.974798  p :     3.060403
      px      :     1.048016
      py      :     1.037589
      dz2     :     0.010802  d :     0.083502
      dxz     :     0.017920
      dyz     :     0.009778
      dx2y2   :     0.020111
      dxy     :     0.024892

 12 C s       :     2.897257  s :     2.897257
      pz      :     0.980099  p :     3.058802
      px      :     1.054989
      py      :     1.023714
      dz2     :     0.007688  d :     0.083473
      dxz     :     0.016052
      dyz     :     0.012292
      dx2y2   :     0.023750
      dxy     :     0.023691

 13 C s       :     2.850935  s :     2.850935
      pz      :     0.855631  p :     2.711526
      px      :     0.833308
      py      :     1.022587
      dz2     :     0.065061  d :     0.287613
      dxz     :     0.060297
      dyz     :     0.050734
      dx2y2   :     0.069653
      dxy     :     0.041868

 14 C s       :     2.873800  s :     2.873800
      pz      :     1.047690  p :     3.016977
      px      :     0.913471
      py      :     1.055815
      dz2     :     0.017098  d :     0.120249
      dxz     :     0.017581
      dyz     :     0.017617
      dx2y2   :     0.037115
      dxy     :     0.030838

 15 H s       :     0.880765  s :     0.880765
      pz      :     0.020924  p :     0.039551
      px      :     0.008752
      py      :     0.009875

 16 H s       :     0.883778  s :     0.883778
      pz      :     0.007284  p :     0.039161
      px      :     0.006531
      py      :     0.025345

 17 H s       :     0.879136  s :     0.879136
      pz      :     0.021771  p :     0.039810
      px      :     0.007536
      py      :     0.010502

 18 H s       :     0.875943  s :     0.875943
      pz      :     0.014217  p :     0.040967
      px      :     0.013601
      py      :     0.013149

 19 H s       :     0.881196  s :     0.881196
      pz      :     0.010315  p :     0.040486
      px      :     0.008235
      py      :     0.021936

 20 H s       :     0.858759  s :     0.858759
      pz      :     0.009969  p :     0.043586
      px      :     0.010065
      py      :     0.023552

 21 H s       :     0.858739  s :     0.858739
      pz      :     0.014507  p :     0.043561
      px      :     0.016096
      py      :     0.012958

 22 H s       :     0.797309  s :     0.797309
      pz      :     0.020109  p :     0.077332
      px      :     0.015210
      py      :     0.042012

 23 H s       :     0.789695  s :     0.789695
      pz      :     0.038923  p :     0.078632
      px      :     0.019513
      py      :     0.020196

 24 H s       :     0.695719  s :     0.695719
      pz      :     0.021648  p :     0.113483
      px      :     0.022690
      py      :     0.069145


---------------------------------
LOEWDIN BOND ORDERS (THRESH 0.050000)
---------------------------------
B(  0-O ,  1-O ) :   0.2052 B(  0-O ,  7-C ) :   0.0640 B(  0-O , 13-C ) :   1.4100 
B(  0-O , 24-H ) :   0.9822 B(  1-O ,  7-C ) :   0.0853 B(  1-O , 13-C ) :   2.2035 
B(  2-O ,  3-O ) :   0.3777 B(  2-O ,  5-N ) :   1.9636 B(  2-O , 14-C ) :   0.1067 
B(  3-O ,  5-N ) :   1.9639 B(  3-O , 14-C ) :   0.1067 B(  4-N ,  6-C ) :   0.0715 
B(  4-N ,  7-C ) :   1.1612 B(  4-N , 13-C ) :   0.0546 B(  4-N , 22-H ) :   0.9850 
B(  4-N , 23-H ) :   0.9796 B(  5-N , 11-C ) :   0.0585 B(  5-N , 12-C ) :   0.0584 
B(  5-N , 14-C ) :   1.0279 B(  6-C ,  7-C ) :   0.9815 B(  6-C ,  8-C ) :   1.0450 
B(  6-C ,  9-C ) :   0.0619 B(  6-C , 10-C ) :   0.0604 B(  6-C , 13-C ) :   0.0540 
B(  6-C , 15-H ) :   0.9246 B(  6-C , 16-H ) :   0.9208 B(  7-C , 13-C ) :   0.9806 
B(  7-C , 17-H ) :   0.9046 B(  8-C ,  9-C ) :   1.4177 B(  8-C , 10-C ) :   1.4165 
B(  8-C , 11-C ) :   0.0760 B(  8-C , 12-C ) :   0.0762 B(  8-C , 14-C ) :   0.0950 
B(  9-C , 10-C ) :   0.0694 B(  9-C , 11-C ) :   1.4966 B(  9-C , 12-C ) :   0.1031 
B(  9-C , 14-C ) :   0.0794 B(  9-C , 18-H ) :   0.9178 B( 10-C , 11-C ) :   0.1038 
B( 10-C , 12-C ) :   1.5007 B( 10-C , 14-C ) :   0.0792 B( 10-C , 19-H ) :   0.9199 
B( 11-C , 12-C ) :   0.0700 B( 11-C , 14-C ) :   1.4042 B( 11-C , 20-H ) :   0.9112 
B( 12-C , 14-C ) :   1.4009 B( 12-C , 21-H ) :   0.9112 B( 13-C , 24-H ) :   0.0572 


------------------------------------------
LOEWDIN REDUCED ORBITAL POPULATIONS PER MO
-------------------------------------------
THRESHOLD FOR PRINTING IS 0.1%%
                      0         1         2         3         4         5   
                 -19.20535 -19.17049 -19.17041 -19.14549 -14.56181 -14.32781
                   2.00000   2.00000   2.00000   2.00000   2.00000   2.00000
                  --------  --------  --------  --------  --------  --------
 0 O  s              99.9       0.0       0.0       0.0       0.0       0.0
 1 O  s               0.0       0.0       0.0      99.8       0.0       0.0
 2 O  s               0.0      29.6      70.2       0.0       0.0       0.0
 2 O  py              0.0       0.0       0.0       0.0       0.1       0.0
 3 O  s               0.0      70.2      29.6       0.0       0.0       0.0
 4 N  s               0.0       0.0       0.0       0.0       0.0      99.7
 5 N  s               0.0       0.0       0.0       0.0      99.4       0.0

                      6         7         8         9        10        11   
                 -10.32571 -10.24800 -10.24028 -10.22301 -10.21653 -10.21627
                   2.00000   2.00000   2.00000   2.00000   2.00000   2.00000
                  --------  --------  --------  --------  --------  --------
 0 O  pz              0.1       0.0       0.0       0.0       0.0       0.0
 1 O  pz              0.1       0.0       0.0       0.0       0.0       0.0
 1 O  py              0.2       0.0       0.0       0.0       0.0       0.0
 4 N  px              0.0       0.0       0.1       0.0       0.0       0.0
 5 N  px              0.0       0.1       0.0       0.0       0.0       0.0
 6 C  px              0.0       0.0       0.0       0.1       0.0       0.0
 7 C  s               0.0       0.0      99.4       0.0       0.0       0.0
 7 C  py              0.1       0.0       0.0       0.0       0.0       0.0
 8 C  s               0.0       0.0       0.0      99.3       0.0       0.0
 9 C  s               0.0       0.0       0.0       0.1       0.0       0.2
 9 C  px              0.0       0.0       0.0       0.0       0.0       0.2
 9 C  py              0.0       0.0       0.0       0.1       0.0       0.0
10 C  s               0.0       0.0       0.0       0.1       0.2       0.0
10 C  px              0.0       0.0       0.0       0.1       0.2       0.0
11 C  s               0.0       0.0       0.0       0.0       0.0      99.2
12 C  s               0.0       0.0       0.0       0.0      99.2       0.0
12 C  py              0.0       0.2       0.0       0.0       0.0       0.0
13 C  s              98.9       0.0       0.0       0.0       0.0       0.0
13 C  py              0.0       0.0       0.2       0.0       0.0       0.0
14 C  s               0.0      99.3       0.0       0.0       0.0       0.0
14 C  py              0.0       0.0       0.0       0.0       0.2       0.1

                     12        13        14        15        16        17   
                 -10.21121 -10.21036 -10.21021  -1.21514  -1.11601  -1.03928
                   2.00000   2.00000   2.00000   2.00000   2.00000   2.00000
                  --------  --------  --------  --------  --------  --------
 0 O  s               0.0       0.0       0.0       0.0      41.3       0.0
 0 O  pz              0.0       0.0       0.0       0.0       1.7       0.0
 0 O  px              0.0       0.0       0.0       0.0       1.2       0.0
 0 O  py              0.0       0.0       0.0       0.0       0.2       0.0
 0 O  dxz             0.0       0.0       0.0       0.0       0.1       0.0
 1 O  s               0.0       0.0       0.0       0.0      13.8       0.0
 1 O  pz              0.0       0.0       0.0       0.0       1.1       0.0
 1 O  px              0.0       0.0       0.0       0.0       0.9       0.0
 1 O  py              0.0       0.0       0.0       0.0       0.8       0.0
 2 O  s               0.0       0.0       0.0      19.3       0.0      27.7
 2 O  pz              0.0       0.0       0.0       1.1       0.0       0.2
 2 O  px              0.0       0.0       0.0       0.5       0.0       0.6
 2 O  py              0.0       0.0       0.0       4.7       0.0       1.6
 2 O  dyz             0.0       0.0       0.0       0.2       0.0       0.0
 2 O  dx2y2           0.0       0.0       0.0       0.2       0.0       0.0
 2 O  dxy             0.0       0.0       0.0       0.1       0.0       0.1
[...]
 13 C      5.4480     6.0000     0.5520     3.9572     3.9572    -0.0000
 14 C      5.7802     6.0000     0.2198     3.8207     3.8207     0.0000
 15 H      0.8821     1.0000     0.1179     0.9597     0.9597    -0.0000
 16 H      0.8904     1.0000     0.1096     0.9563     0.9563     0.0000
 17 H      0.8738     1.0000     0.1262     0.9507     0.9507    -0.0000
 18 H      0.8902     1.0000     0.1098     0.9610     0.9610     0.0000
 19 H      0.9037     1.0000     0.0963     0.9595     0.9595     0.0000
 20 H      0.8618     1.0000     0.1382     0.9659     0.9659    -0.0000
 21 H      0.8621     1.0000     0.1379     0.9658     0.9658     0.0000
 22 H      0.7643     1.0000     0.2357     0.9226     0.9226     0.0000
 23 H      0.7497     1.0000     0.2503     0.9275     0.9275     0.0000
 24 H      0.6715     1.0000     0.3285     0.9088     0.9088    -0.0000

  Mayer bond orders larger than 0.100000
B(  0-O , 13-C ) :   1.0980 B(  0-O , 24-H ) :   0.8496 B(  1-O , 13-C ) :   1.9121 
B(  2-O ,  3-O ) :   0.2659 B(  2-O ,  5-N ) :   1.5259 B(  3-O ,  5-N ) :   1.5260 
B(  4-N ,  7-C ) :   1.0345 B(  4-N , 22-H ) :   0.9098 B(  4-N , 23-H ) :   0.8947 
B(  5-N , 14-C ) :   0.8300 B(  6-C ,  7-C ) :   0.9484 B(  6-C ,  8-C ) :   0.9842 
B(  6-C , 15-H ) :   0.9385 B(  6-C , 16-H ) :   0.9400 B(  7-C , 13-C ) :   0.9216 
B(  7-C , 17-H ) :   0.9301 B(  8-C ,  9-C ) :   1.4109 B(  8-C , 10-C ) :   1.4080 
B(  9-C , 11-C ) :   1.4193 B(  9-C , 18-H ) :   0.9340 B( 10-C , 12-C ) :   1.4260 
B( 10-C , 19-H ) :   0.9379 B( 11-C , 14-C ) :   1.3935 B( 11-C , 20-H ) :   0.9199 
B( 12-C , 14-C ) :   1.3910 B( 12-C , 21-H ) :   0.9196 

-------
TIMINGS
-------

Total SCF time: 0 days 0 hours 1 min 25 sec 

Total time                  ....      85.935 sec
Sum of individual times     ....      83.980 sec  ( 97.7%)

SCF preparation             ....       0.374 sec  (  0.4%)
Fock matrix formation       ....      82.790 sec  ( 96.3%)
  Startup                   ....       0.007 sec  (  0.0% of F)
  Split-RI-J                ....       8.622 sec  ( 10.4% of F)
  Chain of spheres X        ....      63.469 sec  ( 76.7% of F)
  XC integration            ....      12.458 sec  ( 15.0% of F)
    XC Preparation          ....       0.000 sec  (  0.0% of XC)
    Basis function eval.    ....       4.889 sec  ( 39.2% of XC)
    Density eval.           ....       2.806 sec  ( 22.5% of XC)
    XC-Functional eval.     ....       0.679 sec  (  5.5% of XC)
    XC-Potential eval.      ....       3.387 sec  ( 27.2% of XC)
Diagonalization             ....       0.000 sec  (  0.0%)
Density matrix formation    ....       0.059 sec  (  0.1%)
Total Energy calculation    ....       0.029 sec  (  0.0%)
Population analysis         ....       0.293 sec  (  0.3%)
Orbital Transformation      ....       0.037 sec  (  0.0%)
Orbital Orthonormalization  ....       0.000 sec  (  0.0%)
DIIS solution               ....       0.178 sec  (  0.2%)
  MO trafo                  ....       0.000 sec  (  0.0 % of DIIS)
  Orb grad                  ....       0.000 sec  (  0.0 % of DIIS)
  Energy W gradient         ....       0.000 sec  (  0.0 % of DIIS)
  DIIS error                ....       0.039 sec  ( 21.9 % of DIIS)
  DIIS work                 ....       0.114 sec  ( 64.3 % of DIIS)
  Form Q                    ....       0.000 sec  (  0.0 % of DIIS)
  Form QpQm                 ....       0.000 sec  (  0.0 % of DIIS)
  Exp/Cayley                ....       0.000 sec  (  0.0 % of DIIS)
  Orb update                ....       0.000 sec  (  0.0 % of DIIS)
  Wake-sleep                ....       0.006 sec  (  3.2 % of DIIS)
SOSCF solution              ....       0.220 sec  (  0.3%)
  MO trafo                  ....       0.063 sec  ( 28.4 % of SOSCF)
  Orb grad                  ....       0.006 sec  (  2.8 % of SOSCF)
  Rot update                ....       0.032 sec  ( 14.4 % of SOSCF)
  Step                      ....       0.110 sec  ( 50.0 % of SOSCF)
Finished LeanSCF after  86.0 sec

Maximum memory used throughout the entire LEANSCF-calculation: 30.5 MB


-------------------------------------------------------------------------------
                          DFT DISPERSION CORRECTION                            
                                                                               
                              DFTD3 V3.1  Rev 1                                
                          USING Becke-Johnson damping                          
-------------------------------------------------------------------------------
The B3LYP functional is recognized
Active option DFTDOPT                   ...         4   

molecular C6(AA) [au] = 6848.218805 


            DFT-D V3
 parameters
 s6 scaling factor         :     1.0000 
 a1 scaling factor         :     0.3981 
 s8 scaling factor         :     1.9889 
 a2 scaling factor         :     4.4211 
 ad hoc parameters k1-k3   :    16.0000     1.3333    -4.0000 

 Edisp/kcal,au: -31.059507330439  -0.049496470254 
 E6   /kcal   : -14.728557728 
 E8   /kcal   : -16.330949602 
 % E8         :  52.579551338 

-------------------------   ----------------
Dispersion correction           -0.049496470
-------------------------   ----------------


-------------------------   --------------------
FINAL SINGLE POINT ENERGY      -758.936071693777
-------------------------   --------------------



           ************************************************************
           *        Program running with 2 parallel MPI-processes     *
           *              working on a common directory               *
           ************************************************************
------------------------------------------------------------------------------
                            ORCA SCF RESPONSE CALCULATION
------------------------------------------------------------------------------

GBWName                                 ... /kaggle/working/Phe-NO2-2/Phe-NO2_InterFrag.gbw
Number of atoms                         ...     25
Number of basis functions               ...    260
Max core memory                         ...   3000 MB

Electric field perturbation             ... YES
Quadrupolar field perturbation          ...  NO
Magnetic field perturbation (no GIAO)   ...  NO
Magnetic field perturbation (with GIAO) ...  NO
Linear momentum (velocity) perturbation ...  NO
Spin-orbit coupling perturbation        ...  NO
Choice of electric origin               ... Center of mass
Position of electric origin             ...     0.004570    -0.120949    -0.087001
Choice of magnetic origin               ... GIAO
Position of magnetic origin             ...     0.000000     0.000000     0.000000
Nuclear geometric perturbations         ...  NO (  75 perturbations)
Nucleus-orbit perturbations             ...  NO (   0 perturbations)
Spin-dipole/Fermi contact perturbations ...  NO (   0 perturbations)

Total number of real perturbations      ...      3
Total number of imaginary perturbations ...      0
Total number of triplet perturbations   ...      0
Total number of SOC perturbations       ...      0

Using XC Grid                  ... (/kaggle/working/Phe-NO2-2/Phe-NO2_InterFrag.grid_cpscf.tmp) 
Recalculating density on grid  ... (/kaggle/working/Phe-NO2-2/Phe-NO2_InterFrag.grho_cpscf0.tmp) done
Calculating the xc-kernel      ... (/kaggle/working/Phe-NO2-2/Phe-NO2_InterFrag.fxc_cpscf0.tmp) done

                                **********************
                                * REAL PERTURBATIONS *
                                **********************



-------------------
SHARK CP-SCF DRIVER
-------------------

Dimension of the orbital basis          ...    260
Dimension of the CPSCF-problem          ...  11275
Number of operators                     ...      1
Max. number of iterations               ...    128
Convergence Tolerance                   ... 1.0e-04
Number of perturbations                 ...      3
Perturbation type                       ... REAL

----------------------------
POPLE LINEAR EQUATION SOLVER
----------------------------

  ITERATION   0:   ||err||_max =   2.9491e+01 (   3.1 sec   0/  3 done)
  ITERATION   1:   ||err||_max =   2.2133e+00 (   2.9 sec   0/  3 done)
  ITERATION   2:   ||err||_max =   7.8125e-01 (   2.8 sec   0/  3 done)
  ITERATION   3:   ||err||_max =   3.0493e-01 (   2.8 sec   0/  3 done)
  ITERATION   4:   ||err||_max =   9.3179e-02 (   2.8 sec   0/  3 done)
  ITERATION   5:   ||err||_max =   3.6507e-02 (   2.9 sec   0/  3 done)
  ITERATION   6:   ||err||_max =   1.2277e-02 (   2.8 sec   0/  3 done)
  ITERATION   7:   ||err||_max =   3.8263e-03 (   2.8 sec   0/  3 done)
  ITERATION   8:   ||err||_max =   1.5591e-03 (   2.9 sec   0/  3 done)
  ITERATION   9:   ||err||_max =   4.6492e-04 (   2.8 sec   0/  3 done)
  ITERATION  10:   ||err||_max =   1.5483e-04 (   2.9 sec   1/  3 done)
  ITERATION  11:   ||err||_max =   3.8998e-05 (   2.6 sec   3/  3 done)

CP-SCF equations solved in  34.1 sec
Response densities calculated in   0.0 sec

Maximum memory used throughout the entire SCFRESP-calculation: 34.5 MB


           ************************************************************
           *        Program running with 2 parallel MPI-processes     *
           *              working on a common directory               *
           ************************************************************

------------------------------------------------------------------------------
                              ORCA PROPERTY CALCULATIONS
------------------------------------------------------------------------------

GBWName                                 ... /kaggle/working/Phe-NO2-2/Phe-NO2_InterFrag.gbw
Number of atoms                         ...     25
Number of basis functions               ...    260
Max core memory                         ...   3000 MB

Electric properties:
Dipole moment                           ... YES
Quadrupole moment                       ...  NO
Static polarizability (Dipole/Dipole)   ... YES
Static polarizability (Dipole/Quad.)    ...  NO
Static polarizability (Quad./Quad.)     ...  NO
Static polarizability (Velocity)        ...  NO
Static hyperpolarizability              ...  NO

Atomic electric properties:
Dipole moment                           ...  NO
Quadrupole moment                       ...  NO
Static polarizability                   ...  NO

Choice of electric origin               ... Center of mass
Position of electric origin             ...     0.004570    -0.120949    -0.087001

General magnetic properties:
Magnetizability                         ...  NO

EPR properties:
g-Tensor (aka g-matrix)                 ...  NO
Zero-Field splitting spin-orbit         ...  NO
Zero-field splitting spin-spin          ...  NO
Hyperfine couplings                     ...  NO (   0 nuclei)
Quadrupole couplings                    ...  NO (   0 nuclei)
Contact density                         ...  NO (   0 nuclei)

NMR properties:
Chemical shifts                         ...  NO (   0 nuclei)
Spin-rotation constants                 ...  NO (   0 nuclei)
Spin-spin couplings                     ...  NO (   0 nuclei,    0 pairs)

Choice of magnetic origin               ... GIAO
Position of magnetic origin             ...     0.000000     0.000000     0.000000

Properties with geometric perturbations:
SCF Hessian                             ...  NO
IR spectrum                             ...  NO
VCD spectrum                            ...  NO
X-ray spectroscopy properties:
SCF XES/XAS/RIXS spectra                ...  NO

SCF SOC stabilization energy            ...  NO
Diagonal Born-Oppenheimer correction    ...  NO

-------------
DIPOLE MOMENT
-------------

Method             : SCF
Type of density    : Electron Density
Multiplicity       :   1
Irrep              :   0
Energy             :  -758.8865752235230957 Eh
Basis              : AO
                                X                 Y                 Z
Electronic contribution:     11.381955693      -5.345694272      -1.950939875
Nuclear contribution   :    -12.622071820       6.319597347       2.381511927
                        -----------------------------------------
Total Dipole Moment    :     -1.240116127       0.973903076       0.430572052
                        -----------------------------------------
Magnitude (a.u.)       :      1.634554221
Magnitude (Debye)      :      4.154706650



--------------------
Rotational spectrum 
--------------------
 
Rotational constants in cm-1:             0.048746             0.009773             0.009117 
Rotational constants in MHz :          1461.354671           292.974549           273.326563 

Dipole components along the rotational axes: 
x,y,z [a.u.] :     1.309455     0.886382     0.414031 
x,y,z [Debye]:     3.328371     2.253003     1.052383 

 

Dipole moment calculation done in   0.0 sec 


---------------------------------------------------
STATIC POLARIZABILITY TENSOR (Dipole/Dipole)
---------------------------------------------------

Method             : SCF
Type of density    : Electron Density
Type of derivative : Electric Field (Direction=X)
Multiplicity       :   1
Irrep              :   0
Basis              : AO

The raw cartesian tensor (atomic units):
     165.943296801       -18.239042127       -20.986128122  
     -18.239042127       113.382489512       -18.092590462  
     -20.986128122       -18.092590462        81.251983816  
diagonalized tensor: 
      65.952250836       120.445512139       174.180007155  

Orientation: 
       0.259884140         0.131347259        -0.956665109  
       0.429790381         0.871432775         0.236400395  
       0.864719875        -0.472602175         0.170019769  

Isotropic polarizability : 120.19259


Polarizability tensor calculation done in   0.0 sec 

Maximum memory used throughout the entire PROP-calculation: 16.0 MB

--------------------------------
SUGGESTED CITATIONS FOR THIS RUN
--------------------------------

Below you find a list of papers that are relevant to this ORCA run
We neither can nor want to force you to cite these papers, but we appreciate if you do
You receive ORCA, which is the product of decades of hard work by many enthusiastic individuals, for free
The only thing we kindly ask in return is that you cite our papers,
We deeply appreciate it, if you show your appreciation for ORCA by not just citing the generic ORCA reference.

Please note that relegating all ORCA citations to the supporting information does *not* help us.
SI sections are not indexed - citations you put there will not count into any citation statistics
But we need these citations in order to attract the funding resources that allow us to do what we are doing

Therefore, if you are a happy ORCA user, please consider citing a few of the papers listed below in the main body of your paper

In addition to the list printed below, the program has created the file /kaggle/working/Phe-NO2-2/Phe-NO2_InterFrag.bibtex that contains the list in bibtex format
You can import this file easily into all common literature databanks and citation aid programs

It goes without saying that in many instances, there are alternative algorithms to achieve similar
results as the ones you have gotten from ORCA. It is, of course, also the case that in some instances
ORCA just re-implements algorithms worked out by others. We are fully aware of that and we are also
fully appreciative of our colleagues work. Hence this citation list should not be read as indicating
that the listed papers, which are focused on our own work, are the only ones worth citing. It simply
meant to make it easier for users to cite ORCA specific papers. It is not a substitute for doing your
own literature research and citing the relevant literature in a scientifically appropriate manner.

List of essential papers. We consider these as the minimum necessary citations

  1. Neese, F.
     Software update: the ORCA program system, version 6.0
     WIRES Comput. Molec. Sci. 2025 15(1), e70019
     doi.org/10.1002/wcms.70019

List of papers to cite with high priority. The work reported in these papers was absolutely
necessary for this run to complete.
Our perspective: the developers of density functionals and basis sets usually get cited in chemistry papers
Good! But without the algorithms to do something with them, the functionals or basis sets would not do anything.
Hence, in our opinion, the algorithm design and method developments papers are equally worthy of getting cited

  1. Neese, F.
     An improvement of the resolution of the identity approximation for the formation of the Coulomb matrix
     J. Comp. Chem. 2003 24(14), 1740-1747
     doi.org/10.1002/jcc.10318
  2. Neese, F.; Wennmohs, F.; Hansen, A.; Becker, U.
     Efficient, approximate and parallel Hartree-Fock and hybrid DFT calculations. A 'chain-of-spheres' algorithm for the Hartree-Fock exchange
     Chem. Phys. 2009 356(1-3), 98-109
     doi.org/10.1016/j.chemphys.2008.10.036
  3. Grimme, S.; Antony, J.; Ehrlich, S.; Krieg, H.
     A consistent and accurate ab initio parametrization of density functional dispersion correction (DFT-D) for the 94 elements H-Pu
     J. Chem. Phys. 2010 132 , 154104
     doi.org/10.1063/1.3382344
  4. Grimme, S.; Ehrlich, S.; Goerigk, L.
     Effect of the damping function in dispersion corrected density functional theory
     J. Comput. Chem. 2011 32(7), 1456-1465
     doi.org/10.1002/jcc.21759
  5. Helmich-Paris, B.; de Souza, B.; Neese, F.; Izsák, R.
     An improved chain of spheres for exchange algorithm
     J. Chem. Phys. 2021 155(10), 104109
     doi.org/10.1063/5.0058766
  6. Neese, F.
     The SHARK Integral Generation and Digestion System
     J. Comp. Chem. 2022 44(3), 381
     doi.org/10.1002/jcc.26942

List of suggested additional citations. These are papers that are important in the 'surrounding' of 
of this run, or papers that preceded the highly important papers. If you like your results we are grateful for a citation.

  1. Izsak, R.; Neese, F.
     An overlap fitted chain of spheres exchange method
     J. Chem. Phys. 2011 135 , 144105
     doi.org/10.1063/1.3646921
  2. Izsak, R.; Hansen, A.; Neese, F.
     The resolution of identity and chain of spheres approximations for the LPNO-CCSD singles Fock term
     Molec. Phys. 2012 110 , 2413-2417
     doi.org/10.1080/00268976.2012.687466
  3. Neese, F.
     The ORCA program system
     WIRES Comput. Molec. Sci. 2012 2(1), 73-78
     doi.org/10.1002/wcms.81
  4. Izsak, R.; Neese, F.; Klopper, W.
     Robust fitting techniques in the chain of spheres approximation to the Fock exchange: The role of the complementary space
     J. Chem. Phys. 2013 139 , 
     doi.org/10.1063/1.4819264
  5. Neese, F.
     Software update: the ORCA program system, version 4.0
     WIRES Comput. Molec. Sci. 2018 8(1), 1-6
     doi.org/10.1002/wcms.1327
  6. Neese, F.; Wennmohs, F.; Becker, U.; Riplinger, C.
     The ORCA quantum chemistry program package
     J. Chem. Phys. 2020 152(22), 224108
     doi.org/10.1063/5.0004608
  7. Neese, F.
     Software update: The ORCA program system—Version 5.0
     WIRES Comput. Molec. Sci. 2022 12(1), e1606
     doi.org/10.1002/wcms.1606

List of optional additional citations

  1. Neese, F.
     Approximate second-order SCF convergence for spin unrestricted wavefunctions
     Chem. Phys. Lett. 2000 325(1-3), 93-98
     doi.org/10.1016/s0009-2614(00)00662-x

Timings for individual modules:

Sum of individual times          ...      125.619 sec (=   2.094 min)
Startup calculation              ...        3.068 sec (=   0.051 min)   2.4 %
SCF iterations                   ...       87.292 sec (=   1.455 min)  69.5 %
SCF Response                     ...       34.834 sec (=   0.581 min)  27.7 %
Property calculations            ...        0.425 sec (=   0.007 min)   0.3 %
                             ****ORCA TERMINATED NORMALLY****
TOTAL RUN TIME: 0 days 0 hours 2 minutes 6 seconds 98 msec
